 running on   20 total cores
 distrk:  each k-point on   20 cores,    1 groups
 distr:  one band on    1 cores,   20 groups
 using from now: INCAR     
 vasp.5.4.1 05Feb16 (build Nov 22 2018 20:17:51) complex                        
  
 POSCAR found type information on POSCAR  Pd H 
 POSCAR found :  2 types and       5 ions
 scaLAPACK will be used

 ----------------------------------------------------------------------------- 
|                                                                             |
|           W    W    AA    RRRRR   N    N  II  N    N   GGGG   !!!           |
|           W    W   A  A   R    R  NN   N  II  NN   N  G    G  !!!           |
|           W    W  A    A  R    R  N N  N  II  N N  N  G       !!!           |
|           W WW W  AAAAAA  RRRRR   N  N N  II  N  N N  G  GGG   !            |
|           WW  WW  A    A  R   R   N   NN  II  N   NN  G    G                |
|           W    W  A    A  R    R  N    N  II  N    N   GGGG   !!!           |
|                                                                             |
|      For optimal performance we recommend to set                            |
|        NCORE= 4 - approx SQRT( number of cores)                             |
|      NCORE specifies how many cores store one orbital (NPAR=cpu/NCORE).     |
|      This setting can  greatly improve the performance of VASP for DFT.     |
|      The default, NPAR=number of cores might be grossly inefficient         |
|      on modern multi-core architectures or massively parallel machines.     |
|      Do your own testing !!!!                                               |
|      Unfortunately you need to use the default for GW and RPA calculations. |
|      (for HF NCORE is supported but not extensively tested yet)             |
|                                                                             |
 ----------------------------------------------------------------------------- 

 LDA part: xc-table for Ceperly-Alder, standard interpolation
 POSCAR found type information on POSCAR  Pd H 
 POSCAR found :  2 types and       5 ions
 POSCAR, INCAR and KPOINTS ok, starting setup
 WARNING: small aliasing (wrap around) errors must be expected
 FFT: planning ...
 WAVECAR not read
 entering main loop
       N       E                     dE             d eps       ncg     rms          rms(c)
DAV:   1     0.291408458708E+03    0.29141E+03   -0.18923E+04 40480   0.997E+02
DAV:   2    -0.189646673742E+02   -0.31037E+03   -0.27078E+03 40400   0.266E+02
DAV:   3    -0.252485444098E+02   -0.62839E+01   -0.62489E+01 58400   0.439E+01
DAV:   4    -0.253645234113E+02   -0.11598E+00   -0.11596E+00 52460   0.531E+00
DAV:   5    -0.253648866272E+02   -0.36322E-03   -0.36319E-03 59140   0.301E-01    0.646E+00
DAV:   6    -0.243304481877E+02    0.10344E+01   -0.19326E+00 54800   0.134E+01    0.108E+00
DAV:   7    -0.243088400615E+02    0.21608E-01   -0.10696E-01 45560   0.193E+00    0.576E-01
DAV:   8    -0.243030614588E+02    0.57786E-02   -0.13371E-02 55560   0.153E+00    0.572E-01
DAV:   9    -0.242985332192E+02    0.45282E-02   -0.64446E-03 49080   0.121E+00    0.150E-01
DAV:  10    -0.242982625449E+02    0.27067E-03   -0.97771E-04 56420   0.215E-01    0.470E-02
DAV:  11    -0.242982656125E+02   -0.30676E-05   -0.82388E-05 47580   0.125E-01
   1 F= -.24298266E+02 E0= -.24298144E+02  d E =-.242923E-03
 Finite differences POTIM= 0.02000 DOF=   3
 bond charge predicted
       N       E                     dE             d eps       ncg     rms          rms(c)
DAV:   1    -0.242977902483E+02    0.47230E-03   -0.96079E-02 42080   0.900E-01    0.800E-02
DAV:   2    -0.242978051104E+02   -0.14862E-04   -0.11229E-03 55260   0.158E-01    0.469E-02
DAV:   3    -0.242978155158E+02   -0.10405E-04   -0.99362E-05 54080   0.136E-01    0.459E-02
DAV:   4    -0.242977868223E+02    0.28694E-04   -0.41482E-05 45500   0.107E-01    0.869E-03
DAV:   5    -0.242977867621E+02    0.60186E-07   -0.49515E-06 33060   0.195E-02
   2 F= -.24297787E+02 E0= -.24297659E+02  d E =-.255555E-03
 Finite differences progress:
  Degree of freedom:   1/  3
  Displacement:        1/  2
  Total:               1/  6
 bond charge predicted
       N       E                     dE             d eps       ncg     rms          rms(c)
DAV:   1    -0.242974777025E+02    0.30912E-03   -0.38401E-01 40320   0.182E+00    0.160E-01
DAV:   2    -0.242975089823E+02   -0.31280E-04   -0.41565E-03 54520   0.333E-01    0.987E-02
DAV:   3    -0.242975744168E+02   -0.65434E-04   -0.43211E-04 61940   0.320E-01    0.109E-01
DAV:   4    -0.242974177468E+02    0.15667E-03   -0.22883E-04 53760   0.239E-01    0.186E-02
DAV:   5    -0.242974141834E+02    0.35635E-05   -0.24500E-05 48500   0.489E-02
   3 F= -.24297414E+02 E0= -.24297288E+02  d E =-.252818E-03
 Finite differences progress:
  Degree of freedom:   1/  3
  Displacement:        2/  2
  Total:               2/  6
 bond charge predicted
       N       E                     dE             d eps       ncg     rms          rms(c)
DAV:   1    -0.242978109607E+02   -0.39321E-03   -0.18818E-01 40340   0.125E+00    0.969E-02
DAV:   2    -0.242978582764E+02   -0.47316E-04   -0.16974E-03 55000   0.200E-01    0.594E-02
DAV:   3    -0.242978822045E+02   -0.23928E-04   -0.14957E-04 55800   0.190E-01    0.633E-02
DAV:   4    -0.242978283773E+02    0.53827E-04   -0.78148E-05 53500   0.141E-01    0.991E-03
DAV:   5    -0.242978273724E+02    0.10049E-05   -0.71989E-06 31840   0.244E-02
   4 F= -.24297827E+02 E0= -.24297699E+02  d E =-.256168E-03
 Finite differences progress:
  Degree of freedom:   2/  3
  Displacement:        1/  2
  Total:               3/  6
 bond charge predicted
       N       E                     dE             d eps       ncg     rms          rms(c)
DAV:   1    -0.242974625999E+02    0.36578E-03   -0.38368E-01 40320   0.182E+00    0.159E-01
DAV:   2    -0.242975001470E+02   -0.37547E-04   -0.41298E-03 52960   0.330E-01    0.979E-02
DAV:   3    -0.242975647029E+02   -0.64556E-04   -0.42309E-04 61800   0.316E-01    0.108E-01
DAV:   4    -0.242974116167E+02    0.15309E-03   -0.22332E-04 53160   0.237E-01    0.184E-02
DAV:   5    -0.242974081847E+02    0.34320E-05   -0.23005E-05 46880   0.483E-02
   5 F= -.24297408E+02 E0= -.24297282E+02  d E =-.252707E-03
 Finite differences progress:
  Degree of freedom:   2/  3
  Displacement:        2/  2
  Total:               4/  6
 bond charge predicted
       N       E                     dE             d eps       ncg     rms          rms(c)
DAV:   1    -0.242978233639E+02   -0.41175E-03   -0.18782E-01 40340   0.125E+00    0.955E-02
DAV:   2    -0.242978742470E+02   -0.50883E-04   -0.16648E-03 54440   0.199E-01    0.590E-02
DAV:   3    -0.242978976586E+02   -0.23412E-04   -0.14536E-04 56120   0.189E-01    0.625E-02
DAV:   4    -0.242978453026E+02    0.52356E-04   -0.76502E-05 53380   0.138E-01    0.971E-03
DAV:   5    -0.242978444366E+02    0.86599E-06   -0.72196E-06 31980   0.247E-02
   6 F= -.24297844E+02 E0= -.24297716E+02  d E =-.256009E-03
 Finite differences progress:
  Degree of freedom:   3/  3
  Displacement:        1/  2
  Total:               5/  6
 bond charge predicted
       N       E                     dE             d eps       ncg     rms          rms(c)
DAV:   1    -0.242974781387E+02    0.36716E-03   -0.38332E-01 40320   0.182E+00    0.159E-01
DAV:   2    -0.242975193371E+02   -0.41198E-04   -0.40993E-03 52820   0.329E-01    0.973E-02
DAV:   3    -0.242975830291E+02   -0.63692E-04   -0.41758E-04 61980   0.314E-01    0.107E-01
DAV:   4    -0.242974323848E+02    0.15064E-03   -0.22024E-04 52860   0.235E-01    0.183E-02
DAV:   5    -0.242974290997E+02    0.32852E-05   -0.22593E-05 46320   0.483E-02
   7 F= -.24297429E+02 E0= -.24297303E+02  d E =-.252574E-03
 Finite differences progress:
  Degree of freedom:   3/  3
  Displacement:        2/  2
  Total:               6/  6
 Finite differences POTIM=  2.000000000000000E-002
 writing wavefunctions
