 running on   20 total cores
 distrk:  each k-point on   20 cores,    1 groups
 distr:  one band on    1 cores,   20 groups
 using from now: INCAR     
 vasp.5.4.1 05Feb16 (build Sep 02 2018 21:45:25) complex                        
  
 POSCAR found type information on POSCAR  Pt
 POSCAR found :  1 types and      13 ions
 scaLAPACK will be used

 ----------------------------------------------------------------------------- 
|                                                                             |
|           W    W    AA    RRRRR   N    N  II  N    N   GGGG   !!!           |
|           W    W   A  A   R    R  NN   N  II  NN   N  G    G  !!!           |
|           W    W  A    A  R    R  N N  N  II  N N  N  G       !!!           |
|           W WW W  AAAAAA  RRRRR   N  N N  II  N  N N  G  GGG   !            |
|           WW  WW  A    A  R   R   N   NN  II  N   NN  G    G                |
|           W    W  A    A  R    R  N    N  II  N    N   GGGG   !!!           |
|                                                                             |
|      For optimal performance we recommend to set                            |
|        NCORE= 4 - approx SQRT( number of cores)                             |
|      NCORE specifies how many cores store one orbital (NPAR=cpu/NCORE).     |
|      This setting can  greatly improve the performance of VASP for DFT.     |
|      The default, NPAR=number of cores might be grossly inefficient         |
|      on modern multi-core architectures or massively parallel machines.     |
|      Do your own testing !!!!                                               |
|      Unfortunately you need to use the default for GW and RPA calculations. |
|      (for HF NCORE is supported but not extensively tested yet)             |
|                                                                             |
 ----------------------------------------------------------------------------- 

 LDA part: xc-table for Ceperly-Alder, standard interpolation
 POSCAR, INCAR and KPOINTS ok, starting setup
 WARNING: small aliasing (wrap around) errors must be expected
 FFT: planning ...
 WAVECAR not read
 entering main loop
       N       E                     dE             d eps       ncg     rms          rms(c)
DAV:   1     0.940356744111E+03    0.94036E+03   -0.18963E+04   160   0.615E+02
DAV:   2     0.446124707627E+03   -0.49423E+03   -0.46661E+03   280   0.887E+01
DAV:   3     0.436580908405E+02   -0.40247E+03   -0.39536E+03   280   0.106E+02
DAV:   4    -0.424864242724E+02   -0.86145E+02   -0.81459E+02   240   0.668E+01
DAV:   5    -0.521871590931E+02   -0.97007E+01   -0.92686E+01   260   0.224E+01    0.120E+01
DAV:   6    -0.539209249824E+02   -0.17338E+01   -0.47347E+01   240   0.360E+01    0.163E+01
DAV:   7    -0.511399843579E+02    0.27809E+01   -0.34098E+01   280   0.322E+01    0.995E+00
DAV:   8    -0.508700780328E+02    0.26991E+00   -0.23602E+01   260   0.187E+01    0.991E+00
DAV:   9    -0.498180424221E+02    0.10520E+01   -0.11694E+01   300   0.155E+01    0.549E+00
DAV:  10    -0.493822487690E+02    0.43579E+00   -0.11937E+00   260   0.692E+00    0.353E+00
DAV:  11    -0.495297303068E+02   -0.14748E+00   -0.23075E+00   280   0.528E+00    0.540E+00
DAV:  12    -0.493331490651E+02    0.19658E+00   -0.15795E+00   300   0.422E+00    0.194E+00
DAV:  13    -0.493547625341E+02   -0.21613E-01   -0.27961E-01   280   0.405E+00    0.215E+00
DAV:  14    -0.493183601495E+02    0.36402E-01   -0.14035E-01   280   0.292E+00    0.100E+00
DAV:  15    -0.493170395844E+02    0.13206E-02   -0.52106E-02   300   0.182E+00    0.982E-01
DAV:  16    -0.493089574509E+02    0.80821E-02   -0.40489E-02   300   0.147E+00    0.518E-01
DAV:  17    -0.493014646516E+02    0.74928E-02   -0.98256E-03   240   0.811E-01    0.196E-01
DAV:  18    -0.492998200970E+02    0.16446E-02   -0.21468E-03   280   0.366E-01    0.122E-01
DAV:  19    -0.492990486065E+02    0.77149E-03   -0.67908E-04   200   0.247E-01    0.795E-02
DAV:  20    -0.492995873467E+02   -0.53874E-03   -0.93224E-04   180   0.195E-01    0.822E-02
DAV:  21    -0.493016160133E+02   -0.20287E-02   -0.64095E-04   160   0.126E-01    0.307E-02
DAV:  22    -0.493045222619E+02   -0.29062E-02   -0.11109E-03   180   0.863E-02    0.305E-02
DAV:  23    -0.493072426470E+02   -0.27204E-02   -0.13513E-03   220   0.817E-02    0.234E-02
DAV:  24    -0.493081479451E+02   -0.90530E-03   -0.28338E-04   160   0.440E-02    0.940E-03
DAV:  25    -0.493087105829E+02   -0.56264E-03   -0.69558E-05   120   0.281E-02    0.717E-03
DAV:  26    -0.493089290147E+02   -0.21843E-03   -0.22427E-05   100   0.216E-02    0.430E-03
DAV:  27    -0.493091472447E+02   -0.21823E-03   -0.22994E-05   100   0.155E-02    0.389E-03
DAV:  28    -0.493093381666E+02   -0.19092E-03   -0.36842E-05   100   0.153E-02    0.231E-03
DAV:  29    -0.493093820568E+02   -0.43890E-04   -0.18100E-05   100   0.123E-02
   1 F= -.49309382E+02 E0= -.49181372E+02  d E =-.493094E+02
 summed vel is now  0.000000000000000E+000 -2.081668171172169E-017
  3.469446951953614E-017
quench:  g(F)=  0.737E+00 g(S)=  0.000E+00 dE (1.order)=-0.147E+01
 bond charge predicted
       N       E                     dE             d eps       ncg     rms          rms(c)
DAV:   1    -0.503765952966E+02   -0.10673E+01   -0.17649E+02   160   0.402E+01    0.205E+00
DAV:   2    -0.508723928480E+02   -0.49580E+00   -0.55536E+00   240   0.107E+01    0.395E+00
DAV:   3    -0.508333677174E+02    0.39025E-01   -0.25253E+00   240   0.686E+00    0.345E+00
DAV:   4    -0.507411930190E+02    0.92175E-01   -0.10440E+00   240   0.320E+00    0.160E+00
DAV:   5    -0.507144179785E+02    0.26775E-01   -0.15256E-01   220   0.196E+00    0.110E+00
DAV:   6    -0.507102756731E+02    0.41423E-02   -0.49558E-02   280   0.133E+00    0.981E-01
DAV:   7    -0.507034204350E+02    0.68552E-02   -0.78203E-02   220   0.140E+00    0.656E-01
DAV:   8    -0.506995088801E+02    0.39116E-02   -0.28162E-02   220   0.117E+00    0.328E-01
DAV:   9    -0.506977677551E+02    0.17411E-02   -0.72190E-03   200   0.662E-01    0.203E-01
DAV:  10    -0.506973775007E+02    0.39025E-03   -0.23880E-03   260   0.393E-01    0.129E-01
DAV:  11    -0.506971308471E+02    0.24665E-03   -0.75558E-04   200   0.211E-01    0.750E-02
DAV:  12    -0.506970441005E+02    0.86747E-04   -0.24961E-04   140   0.145E-01
   2 F= -.50697044E+02 E0= -.50575929E+02  d E =-.138766E+01
 summed vel is now  0.000000000000000E+000  2.081668171172169E-017
 -9.714451465470120E-017
quench:  g(F)=  0.568E+00 g(S)=  0.000E+00 dE (1.order)=-0.243E+01
 bond charge predicted
       N       E                     dE             d eps       ncg     rms          rms(c)
DAV:   1    -0.512479848640E+02   -0.55085E+00   -0.62669E+02   160   0.789E+01    0.404E+00
DAV:   2    -0.533456085216E+02   -0.20976E+01   -0.24113E+01   260   0.215E+01    0.720E+00
DAV:   3    -0.531033347085E+02    0.24227E+00   -0.72624E+00   260   0.133E+01    0.525E+00
DAV:   4    -0.527773323004E+02    0.32600E+00   -0.15240E+00   220   0.593E+00    0.249E+00
DAV:   5    -0.527258806041E+02    0.51452E-01   -0.48520E-01   280   0.332E+00    0.194E+00
DAV:   6    -0.527064784848E+02    0.19402E-01   -0.13014E-01   260   0.238E+00    0.159E+00
DAV:   7    -0.526927918041E+02    0.13687E-01   -0.25963E-01   240   0.265E+00    0.127E+00
DAV:   8    -0.526829047066E+02    0.98871E-02   -0.11334E-01   200   0.221E+00    0.685E-01
DAV:   9    -0.526758141065E+02    0.70906E-02   -0.29615E-02   200   0.133E+00    0.356E-01
DAV:  10    -0.526747424093E+02    0.10717E-02   -0.65897E-03   220   0.606E-01    0.256E-01
DAV:  11    -0.526735001287E+02    0.12423E-02   -0.27545E-03   220   0.434E-01    0.116E-01
DAV:  12    -0.526733475282E+02    0.15260E-03   -0.11152E-03   200   0.223E-01    0.591E-02
DAV:  13    -0.526733758098E+02   -0.28282E-04   -0.16623E-04   140   0.122E-01
   3 F= -.52673376E+02 E0= -.52562983E+02  d E =-.197633E+01
 summed vel is now  0.000000000000000E+000 -1.387778780781446E-017
 -1.387778780781446E-017
quench:  g(F)=  0.218E+00 g(S)=  0.000E+00 dE (1.order)=-0.187E+01
 bond charge predicted
       N       E                     dE             d eps       ncg     rms          rms(c)
DAV:   1    -0.513497222940E+02    0.13236E+01   -0.97102E+02   160   0.101E+02    0.472E+00
DAV:   2    -0.541109372818E+02   -0.27612E+01   -0.32503E+01   240   0.255E+01    0.420E+00
DAV:   3    -0.538731909304E+02    0.23775E+00   -0.22028E+00   240   0.100E+01    0.362E+00
DAV:   4    -0.537930233910E+02    0.80168E-01   -0.10726E+00   280   0.538E+00    0.271E+00
DAV:   5    -0.537289057016E+02    0.64118E-01   -0.41127E-01   280   0.336E+00    0.187E+00
DAV:   6    -0.537398180973E+02   -0.10912E-01   -0.70335E-01   260   0.323E+00    0.240E+00
DAV:   7    -0.536864341134E+02    0.53384E-01   -0.55651E-01   220   0.328E+00    0.686E-01
DAV:   8    -0.536807027834E+02    0.57313E-02   -0.79402E-02   200   0.195E+00    0.521E-01
DAV:   9    -0.536770648850E+02    0.36379E-02   -0.25658E-02   200   0.102E+00    0.302E-01
DAV:  10    -0.536754932264E+02    0.15717E-02   -0.64073E-03   220   0.627E-01    0.154E-01
DAV:  11    -0.536753763758E+02    0.11685E-03   -0.24225E-03   220   0.333E-01    0.812E-02
DAV:  12    -0.536753831496E+02   -0.67738E-05   -0.44425E-04   140   0.192E-01
   4 F= -.53675383E+02 E0= -.53569017E+02  d E =-.100201E+01
 summed vel is now  0.000000000000000E+000 -8.673617379884035E-019
  8.673617379884035E-019
quench:  g(F)=  0.698E-01 g(S)=  0.000E+00 dE (1.order)=-0.946E-01
 bond charge predicted
       N       E                     dE             d eps       ncg     rms          rms(c)
DAV:   1    -0.537495498196E+02   -0.74173E-01   -0.76075E+00   160   0.828E+00    0.680E-01
DAV:   2    -0.538330928233E+02   -0.83543E-01   -0.68641E-01   240   0.332E+00    0.270E+00
DAV:   3    -0.537672918085E+02    0.65801E-01   -0.68105E-01   220   0.319E+00    0.695E-01
DAV:   4    -0.537596146243E+02    0.76772E-02   -0.79076E-02   220   0.102E+00    0.353E-01
DAV:   5    -0.537578442325E+02    0.17704E-02   -0.14448E-02   220   0.603E-01    0.244E-01
DAV:   6    -0.537572241126E+02    0.62012E-03   -0.49079E-03   200   0.442E-01    0.156E-01
DAV:   7    -0.537567721390E+02    0.45197E-03   -0.16586E-03   200   0.289E-01    0.589E-02
DAV:   8    -0.537567276842E+02    0.44455E-04   -0.34273E-04   100   0.161E-01
   5 F= -.53756728E+02 E0= -.53648284E+02  d E =-.813445E-01
 summed vel is now  0.000000000000000E+000  1.734723475976807E-018
  5.204170427930421E-018
quench:  g(F)=  0.368E-01 g(S)=  0.000E+00 dE (1.order)=-0.141E+00
 bond charge predicted
       N       E                     dE             d eps       ncg     rms          rms(c)
DAV:   1    -0.538184268693E+02   -0.61655E-01   -0.31842E+01   160   0.170E+01    0.140E+00
DAV:   2    -0.541394543102E+02   -0.32103E+00   -0.25523E+00   240   0.715E+00    0.484E+00
DAV:   3    -0.538892820611E+02    0.25017E+00   -0.22897E+00   220   0.642E+00    0.149E+00
DAV:   4    -0.538656982474E+02    0.23584E-01   -0.35546E-01   220   0.218E+00    0.851E-01
DAV:   5    -0.538576053442E+02    0.80929E-02   -0.71750E-02   200   0.131E+00    0.514E-01
DAV:   6    -0.538547917235E+02    0.28136E-02   -0.15714E-02   240   0.867E-01    0.286E-01
DAV:   7    -0.538534108056E+02    0.13809E-02   -0.72067E-03   240   0.665E-01    0.188E-01
DAV:   8    -0.538526235875E+02    0.78722E-03   -0.29171E-03   220   0.472E-01    0.738E-02
DAV:   9    -0.538525275974E+02    0.95990E-04   -0.49731E-04   120   0.181E-01
   6 F= -.53852528E+02 E0= -.53739659E+02  d E =-.957999E-01
 summed vel is now  0.000000000000000E+000  3.469446951953614E-018
 -2.168404344971009E-019
quench:  g(F)=  0.110E-01 g(S)=  0.000E+00 dE (1.order)=-0.749E-01
 bond charge predicted
       N       E                     dE             d eps       ncg     rms          rms(c)
DAV:   1    -0.538704838932E+02   -0.17860E-01   -0.29558E+01   160   0.162E+01    0.106E+00
DAV:   2    -0.540264872307E+02   -0.15600E+00   -0.13832E+00   240   0.610E+00    0.296E+00
DAV:   3    -0.539358088914E+02    0.90678E-01   -0.96582E-01   260   0.429E+00    0.131E+00
DAV:   4    -0.539201646059E+02    0.15644E-01   -0.25395E-01   220   0.178E+00    0.786E-01
DAV:   5    -0.539137196541E+02    0.64450E-02   -0.57470E-02   200   0.106E+00    0.410E-01
DAV:   6    -0.539116008880E+02    0.21188E-02   -0.10016E-02   240   0.645E-01    0.236E-01
DAV:   7    -0.539106971663E+02    0.90372E-03   -0.64590E-03   220   0.604E-01    0.199E-01
DAV:   8    -0.539098565523E+02    0.84061E-03   -0.33151E-03   220   0.452E-01    0.508E-02
DAV:   9    -0.539098107359E+02    0.45816E-04   -0.36797E-04   100   0.151E-01
   7 F= -.53909811E+02 E0= -.53793625E+02  d E =-.572831E-01
 summed vel is now  0.000000000000000E+000  0.000000000000000E+000
  3.469446951953614E-018
quench:  g(F)=  0.443E-02 g(S)=  0.000E+00 dE (1.order)=-0.489E-01
 bond charge predicted
       N       E                     dE             d eps       ncg     rms          rms(c)
DAV:   1    -0.538999649903E+02    0.98916E-02   -0.31172E+01   160   0.167E+01    0.114E+00
DAV:   2    -0.541225929559E+02   -0.22263E+00   -0.18272E+00   240   0.677E+00    0.373E+00
DAV:   3    -0.539738651190E+02    0.14873E+00   -0.13828E+00   280   0.500E+00    0.142E+00
DAV:   4    -0.539540320657E+02    0.19833E-01   -0.30734E-01   220   0.189E+00    0.781E-01
DAV:   5    -0.539465340760E+02    0.74980E-02   -0.48542E-02   220   0.107E+00    0.367E-01
DAV:   6    -0.539446642393E+02    0.18698E-02   -0.78770E-03   220   0.613E-01    0.228E-01
DAV:   7    -0.539437539564E+02    0.91028E-03   -0.63493E-03   240   0.539E-01    0.171E-01
DAV:   8    -0.539432179149E+02    0.53604E-03   -0.20270E-03   240   0.390E-01    0.632E-02
DAV:   9    -0.539431430652E+02    0.74850E-04   -0.21725E-04   100   0.122E-01
   8 F= -.53943143E+02 E0= -.53824287E+02  d E =-.333323E-01
 summed vel is now  0.000000000000000E+000  2.168404344971009E-018
 -1.517883041479706E-018
quench:  g(F)=  0.330E-02 g(S)=  0.000E+00 dE (1.order)=-0.244E-01
 bond charge predicted
       N       E                     dE             d eps       ncg     rms          rms(c)
DAV:   1    -0.539411894980E+02    0.20284E-02   -0.10396E+01   160   0.969E+00    0.526E-01
DAV:   2    -0.539761055644E+02   -0.34916E-01   -0.31656E-01   240   0.273E+00    0.134E+00
DAV:   3    -0.539651688992E+02    0.10937E-01   -0.22691E-01   220   0.218E+00    0.872E-01
DAV:   4    -0.539581586526E+02    0.70102E-02   -0.65983E-02   220   0.992E-01    0.318E-01
DAV:   5    -0.539560029952E+02    0.21557E-02   -0.11325E-02   200   0.487E-01    0.225E-01
DAV:   6    -0.539557393560E+02    0.26364E-03   -0.73953E-03   220   0.409E-01    0.223E-01
DAV:   7    -0.539551407944E+02    0.59856E-03   -0.45273E-03   200   0.367E-01    0.104E-01
DAV:   8    -0.539548220144E+02    0.31878E-03   -0.10163E-03   160   0.249E-01    0.373E-02
DAV:   9    -0.539548176509E+02    0.43634E-05   -0.17327E-04   100   0.105E-01
   9 F= -.53954818E+02 E0= -.53835118E+02  d E =-.116746E-01
 summed vel is now  0.000000000000000E+000  0.000000000000000E+000
  2.168404344971009E-019
quench:  g(F)=  0.396E-02 g(S)=  0.000E+00 dE (1.order)=-0.665E-02
 bond charge predicted
       N       E                     dE             d eps       ncg     rms          rms(c)
DAV:   1    -0.539597178857E+02   -0.48959E-02   -0.65604E-01   160   0.244E+00    0.162E-01
DAV:   2    -0.539646149250E+02   -0.48970E-02   -0.32985E-02   240   0.855E-01    0.621E-01
DAV:   3    -0.539619489332E+02    0.26660E-02   -0.27988E-02   220   0.778E-01    0.224E-01
DAV:   4    -0.539607403194E+02    0.12086E-02   -0.52357E-03   180   0.299E-01    0.107E-01
DAV:   5    -0.539605106545E+02    0.22966E-03   -0.12063E-03   120   0.157E-01    0.595E-02
DAV:   6    -0.539604538297E+02    0.56825E-04   -0.30988E-04   100   0.107E-01
  10 F= -.53960454E+02 E0= -.53840465E+02  d E =-.563618E-02
 summed vel is now  0.000000000000000E+000  0.000000000000000E+000
  1.301042606982605E-018
quench:  g(F)=  0.206E-02 g(S)=  0.000E+00 dE (1.order)=-0.861E-02
 bond charge predicted
       N       E                     dE             d eps       ncg     rms          rms(c)
DAV:   1    -0.539649877188E+02   -0.44771E-02   -0.20921E+00   160   0.435E+00    0.253E-01
DAV:   2    -0.539772593392E+02   -0.12272E-01   -0.85390E-02   240   0.140E+00    0.927E-01
DAV:   3    -0.539705815419E+02    0.66778E-02   -0.60857E-02   240   0.118E+00    0.336E-01
DAV:   4    -0.539682691608E+02    0.23124E-02   -0.12010E-02   200   0.438E-01    0.179E-01
DAV:   5    -0.539677525273E+02    0.51663E-03   -0.29353E-03   140   0.233E-01    0.992E-02
DAV:   6    -0.539676001639E+02    0.15236E-03   -0.91603E-04   120   0.176E-01    0.724E-02
DAV:   7    -0.539675007742E+02    0.99390E-04   -0.81331E-04   180   0.161E-01
  11 F= -.53967501E+02 E0= -.53847115E+02  d E =-.704694E-02
 summed vel is now  0.000000000000000E+000 -6.505213034913027E-019
  4.336808689942018E-019
quench:  g(F)=  0.154E-02 g(S)=  0.000E+00 dE (1.order)=-0.888E-02
 bond charge predicted
       N       E                     dE             d eps       ncg     rms          rms(c)
DAV:   1    -0.539713952262E+02   -0.37951E-02   -0.29132E+00   160   0.513E+00    0.203E-01
DAV:   2    -0.539777294210E+02   -0.63342E-02   -0.56615E-02   240   0.111E+00    0.398E-01
DAV:   3    -0.539770334074E+02    0.69601E-03   -0.13125E-02   200   0.636E-01    0.254E-01
DAV:   4    -0.539762447986E+02    0.78861E-03   -0.60911E-03   180   0.324E-01    0.190E-01
DAV:   5    -0.539759411500E+02    0.30365E-03   -0.33265E-03   120   0.233E-01    0.122E-01
DAV:   6    -0.539757405650E+02    0.20058E-03   -0.16617E-03   180   0.208E-01    0.918E-02
DAV:   7    -0.539755611702E+02    0.17939E-03   -0.72547E-04   140   0.180E-01    0.388E-02
DAV:   8    -0.539755324004E+02    0.28770E-04   -0.14162E-04   100   0.105E-01
  12 F= -.53975532E+02 E0= -.53854094E+02  d E =-.803163E-02
 summed vel is now  0.000000000000000E+000 -2.168404344971009E-019
  8.673617379884035E-019
quench:  g(F)=  0.138E-02 g(S)=  0.000E+00 dE (1.order)=-0.108E-01
 bond charge predicted
       N       E                     dE             d eps       ncg     rms          rms(c)
DAV:   1    -0.539786260892E+02   -0.30649E-02   -0.48559E+00   160   0.658E+00    0.276E-01
DAV:   2    -0.539917984900E+02   -0.13172E-01   -0.10563E-01   240   0.158E+00    0.704E-01
DAV:   3    -0.539880529078E+02    0.37456E-02   -0.31182E-02   200   0.103E+00    0.293E-01
DAV:   4    -0.539866792659E+02    0.13736E-02   -0.10747E-02   220   0.403E-01    0.282E-01
DAV:   5    -0.539861082907E+02    0.57098E-03   -0.63132E-03   180   0.306E-01    0.144E-01
DAV:   6    -0.539856953721E+02    0.41292E-03   -0.25692E-03   200   0.260E-01    0.116E-01
DAV:   7    -0.539854426351E+02    0.25274E-03   -0.11747E-03   180   0.242E-01    0.491E-02
DAV:   8    -0.539853922967E+02    0.50338E-04   -0.21705E-04   100   0.131E-01
  13 F= -.53985392E+02 E0= -.53862755E+02  d E =-.985990E-02
 summed vel is now  0.000000000000000E+000 -2.168404344971009E-019
  4.336808689942018E-019
quench:  g(F)=  0.122E-02 g(S)=  0.000E+00 dE (1.order)=-0.122E-01
 bond charge predicted
       N       E                     dE             d eps       ncg     rms          rms(c)
DAV:   1    -0.539864998023E+02   -0.10572E-02   -0.69750E+00   160   0.790E+00    0.313E-01
DAV:   2    -0.540020838944E+02   -0.15584E-01   -0.13813E-01   240   0.178E+00    0.622E-01
DAV:   3    -0.539991773817E+02    0.29065E-02   -0.34571E-02   200   0.105E+00    0.312E-01
DAV:   4    -0.539974077865E+02    0.17696E-02   -0.77560E-03   220   0.397E-01    0.179E-01
DAV:   5    -0.539969985043E+02    0.40928E-03   -0.28283E-03   200   0.291E-01    0.159E-01
DAV:   6    -0.539973493456E+02   -0.35084E-03   -0.82701E-03   220   0.348E-01    0.312E-01
DAV:   7    -0.539967344342E+02    0.61491E-03   -0.72824E-03   200   0.347E-01    0.981E-02
DAV:   8    -0.539963731528E+02    0.36128E-03   -0.82476E-04   120   0.186E-01    0.374E-02
DAV:   9    -0.539963581435E+02    0.15009E-04   -0.14627E-04   100   0.869E-02
  14 F= -.53996358E+02 E0= -.53872784E+02  d E =-.109658E-01
 summed vel is now  0.000000000000000E+000 -1.084202172485504E-018
 -8.673617379884035E-019
quench:  g(F)=  0.119E-02 g(S)=  0.000E+00 dE (1.order)=-0.126E-01
 bond charge predicted
       N       E                     dE             d eps       ncg     rms          rms(c)
DAV:   1    -0.539956219742E+02    0.75118E-03   -0.78082E+00   160   0.829E+00    0.411E-01
DAV:   2    -0.540265899006E+02   -0.30968E-01   -0.22456E-01   240   0.242E+00    0.130E+00
DAV:   3    -0.540118290033E+02    0.14761E-01   -0.11722E-01   220   0.176E+00    0.537E-01
DAV:   4    -0.540082991069E+02    0.35299E-02   -0.33671E-02   220   0.677E-01    0.345E-01
DAV:   5    -0.540069041598E+02    0.13949E-02   -0.10406E-02   200   0.403E-01    0.186E-01
DAV:   6    -0.540063637997E+02    0.54036E-03   -0.34221E-03   200   0.307E-01    0.143E-01
DAV:   7    -0.540059413054E+02    0.42249E-03   -0.22891E-03   220   0.297E-01    0.781E-02
DAV:   8    -0.540058228885E+02    0.11842E-03   -0.43967E-04   100   0.200E-01    0.382E-02
DAV:   9    -0.540058066636E+02    0.16225E-04   -0.13566E-04   100   0.857E-02
  15 F= -.54005807E+02 E0= -.53881325E+02  d E =-.944852E-02
 summed vel is now  0.000000000000000E+000  8.673617379884035E-019
  3.252606517456513E-019
quench:  g(F)=  0.194E-02 g(S)=  0.000E+00 dE (1.order)=-0.106E-01
 bond charge predicted
       N       E                     dE             d eps       ncg     rms          rms(c)
DAV:   1    -0.540077921183E+02   -0.19692E-02   -0.33386E+00   160   0.546E+00    0.287E-01
DAV:   2    -0.540199294911E+02   -0.12137E-01   -0.10321E-01   240   0.149E+00    0.865E-01
DAV:   3    -0.540157300319E+02    0.41995E-02   -0.75990E-02   220   0.121E+00    0.473E-01
DAV:   4    -0.540130786874E+02    0.26513E-02   -0.18774E-02   220   0.552E-01    0.163E-01
DAV:   5    -0.540122121477E+02    0.86654E-03   -0.31742E-03   160   0.258E-01    0.111E-01
DAV:   6    -0.540121973885E+02    0.14759E-04   -0.21153E-03   140   0.226E-01    0.136E-01
DAV:   7    -0.540120422618E+02    0.15513E-03   -0.18747E-03   180   0.224E-01    0.662E-02
DAV:   8    -0.540119016331E+02    0.14063E-03   -0.34463E-04   100   0.148E-01    0.204E-02
DAV:   9    -0.540118999850E+02    0.16480E-05   -0.86934E-05   100   0.572E-02
  16 F= -.54011900E+02 E0= -.53887253E+02  d E =-.609332E-02
 summed vel is now  0.000000000000000E+000 -3.252606517456513E-019
  0.000000000000000E+000
quench:  g(F)=  0.150E-02 g(S)=  0.000E+00 dE (1.order)=-0.490E-02
 bond charge predicted
       N       E                     dE             d eps       ncg     rms          rms(c)
DAV:   1    -0.540148837562E+02   -0.29821E-02   -0.94543E-01   160   0.288E+00    0.157E-01
DAV:   2    -0.540192868587E+02   -0.44031E-02   -0.28646E-02   240   0.852E-01    0.536E-01
DAV:   3    -0.540173713754E+02    0.19155E-02   -0.18347E-02   220   0.701E-01    0.220E-01
DAV:   4    -0.540163069330E+02    0.10644E-02   -0.52683E-03   180   0.281E-01    0.125E-01
DAV:   5    -0.540160738693E+02    0.23306E-03   -0.15553E-03   120   0.158E-01    0.687E-02
DAV:   6    -0.540159909960E+02    0.82873E-04   -0.43760E-04   100   0.114E-01
  17 F= -.54015991E+02 E0= -.53891013E+02  d E =-.409101E-02
 summed vel is now  0.000000000000000E+000 -6.505213034913027E-019
  1.084202172485504E-019
quench:  g(F)=  0.108E-02 g(S)=  0.000E+00 dE (1.order)=-0.544E-02
 bond charge predicted
       N       E                     dE             d eps       ncg     rms          rms(c)
DAV:   1    -0.540190865666E+02   -0.30127E-02   -0.16157E+00   160   0.373E+00    0.141E-01
DAV:   2    -0.540225329317E+02   -0.34464E-02   -0.30001E-02   220   0.789E-01    0.305E-01
DAV:   3    -0.540218360268E+02    0.69690E-03   -0.94060E-03   200   0.488E-01    0.152E-01
DAV:   4    -0.540214716846E+02    0.36434E-03   -0.28217E-03   140   0.201E-01    0.122E-01
DAV:   5    -0.540213399166E+02    0.13177E-03   -0.13579E-03   120   0.152E-01    0.101E-01
DAV:   6    -0.540212937960E+02    0.46121E-04   -0.82202E-04   120   0.159E-01
  18 F= -.54021294E+02 E0= -.53895512E+02  d E =-.530280E-02
 summed vel is now  0.000000000000000E+000 -8.673617379884035E-019
  2.168404344971009E-019
quench:  g(F)=  0.114E-02 g(S)=  0.000E+00 dE (1.order)=-0.775E-02
 bond charge predicted
       N       E                     dE             d eps       ncg     rms          rms(c)
DAV:   1    -0.540243490585E+02   -0.30091E-02   -0.31091E+00   160   0.514E+00    0.235E-01
DAV:   2    -0.540356087202E+02   -0.11260E-01   -0.83864E-02   240   0.137E+00    0.836E-01
DAV:   3    -0.540311836706E+02    0.44250E-02   -0.50644E-02   220   0.985E-01    0.327E-01
DAV:   4    -0.540290881192E+02    0.20956E-02   -0.11387E-02   200   0.392E-01    0.178E-01
DAV:   5    -0.540286108403E+02    0.47728E-03   -0.29292E-03   120   0.220E-01    0.116E-01
DAV:   6    -0.540284498917E+02    0.16095E-03   -0.14709E-03   180   0.207E-01    0.988E-02
DAV:   7    -0.540282690849E+02    0.18081E-03   -0.10154E-03   180   0.201E-01    0.403E-02
DAV:   8    -0.540282327186E+02    0.36366E-04   -0.15909E-04   100   0.110E-01
  19 F= -.54028233E+02 E0= -.53902232E+02  d E =-.693892E-02
 summed vel is now  0.000000000000000E+000  4.336808689942018E-019
  3.252606517456513E-019
quench:  g(F)=  0.115E-02 g(S)=  0.000E+00 dE (1.order)=-0.960E-02
 bond charge predicted
       N       E                     dE             d eps       ncg     rms          rms(c)
DAV:   1    -0.540310932145E+02   -0.28241E-02   -0.47164E+00   160   0.633E+00    0.258E-01
DAV:   2    -0.540448578992E+02   -0.13765E-01   -0.12384E-01   240   0.146E+00    0.867E-01
DAV:   3    -0.540401513353E+02    0.47066E-02   -0.70758E-02   220   0.106E+00    0.336E-01
DAV:   4    -0.540384095798E+02    0.17418E-02   -0.90389E-03   200   0.368E-01    0.197E-01
DAV:   5    -0.540378340487E+02    0.57553E-03   -0.19275E-03   160   0.265E-01    0.154E-01
DAV:   6    -0.540377049552E+02    0.12909E-03   -0.20733E-03   200   0.249E-01    0.135E-01
DAV:   7    -0.540373264993E+02    0.37846E-03   -0.13835E-03   200   0.231E-01    0.540E-02
DAV:   8    -0.540372676363E+02    0.58863E-04   -0.21341E-04   100   0.126E-01
  20 F= -.54037268E+02 E0= -.53911217E+02  d E =-.903492E-02
 summed vel is now  0.000000000000000E+000  8.673617379884035E-019
 -5.421010862427522E-019
quench:  g(F)=  0.120E-02 g(S)=  0.000E+00 dE (1.order)=-0.114E-01
 bond charge predicted
       N       E                     dE             d eps       ncg     rms          rms(c)
DAV:   1    -0.540397102109E+02   -0.23837E-02   -0.64558E+00   160   0.731E+00    0.314E-01
DAV:   2    -0.540571059426E+02   -0.17396E-01   -0.13663E-01   240   0.185E+00    0.811E-01
DAV:   3    -0.540511787951E+02    0.59271E-02   -0.38778E-02   220   0.120E+00    0.313E-01
DAV:   4    -0.540492759174E+02    0.19029E-02   -0.84229E-03   180   0.416E-01    0.269E-01
DAV:   5    -0.540488469055E+02    0.42901E-03   -0.59603E-03   180   0.296E-01    0.191E-01
DAV:   6    -0.540484125754E+02    0.43433E-03   -0.42267E-03   200   0.281E-01    0.156E-01
DAV:   7    -0.540480210283E+02    0.39155E-03   -0.25294E-03   200   0.264E-01    0.701E-02
DAV:   8    -0.540479136173E+02    0.10741E-03   -0.34369E-04   100   0.172E-01    0.322E-02
DAV:   9    -0.540478976567E+02    0.15961E-04   -0.12076E-04   100   0.794E-02
  21 F= -.54047898E+02 E0= -.53921508E+02  d E =-.106300E-01
 summed vel is now  0.000000000000000E+000  2.602085213965211E-018
 -2.778268066994105E-019
quench:  g(F)=  0.145E-02 g(S)=  0.000E+00 dE (1.order)=-0.133E-01
 bond charge predicted
       N       E                     dE             d eps       ncg     rms          rms(c)
DAV:   1    -0.540490626016E+02   -0.11490E-02   -0.71480E+00   160   0.782E+00    0.304E-01
DAV:   2    -0.540625609171E+02   -0.13498E-01   -0.13076E-01   220   0.159E+00    0.534E-01
DAV:   3    -0.540622572835E+02    0.30363E-03   -0.48127E-02   220   0.996E-01    0.522E-01
DAV:   4    -0.540601929755E+02    0.20643E-02   -0.20376E-02   220   0.503E-01    0.208E-01
DAV:   5    -0.540591870004E+02    0.10060E-02   -0.25574E-03   200   0.289E-01    0.156E-01
DAV:   6    -0.540593123734E+02   -0.12537E-03   -0.40096E-03   220   0.336E-01    0.231E-01
DAV:   7    -0.540588165478E+02    0.49583E-03   -0.38832E-03   200   0.322E-01    0.955E-02
DAV:   8    -0.540585970837E+02    0.21946E-03   -0.76868E-04   120   0.179E-01    0.356E-02
DAV:   9    -0.540585541719E+02    0.42912E-04   -0.16046E-04   100   0.943E-02
  22 F= -.54058554E+02 E0= -.53932275E+02  d E =-.106565E-01
 summed vel is now  0.000000000000000E+000  4.336808689942018E-019
 -8.131516293641283E-019
quench:  g(F)=  0.212E-02 g(S)=  0.000E+00 dE (1.order)=-0.125E-01
 bond charge predicted
       N       E                     dE             d eps       ncg     rms          rms(c)
DAV:   1    -0.540618250275E+02   -0.32279E-02   -0.43938E+00   160   0.614E+00    0.329E-01
DAV:   2    -0.540789848899E+02   -0.17160E-01   -0.13130E-01   240   0.184E+00    0.961E-01
DAV:   3    -0.540710585493E+02    0.79263E-02   -0.64950E-02   220   0.142E+00    0.456E-01
DAV:   4    -0.540683835324E+02    0.26750E-02   -0.19312E-02   220   0.560E-01    0.275E-01
DAV:   5    -0.540674379206E+02    0.94561E-03   -0.77878E-03   180   0.328E-01    0.159E-01
DAV:   6    -0.540670241081E+02    0.41381E-03   -0.25352E-03   160   0.227E-01    0.100E-01
DAV:   7    -0.540668903986E+02    0.13371E-03   -0.15972E-03   200   0.225E-01    0.789E-02
DAV:   8    -0.540667778989E+02    0.11250E-03   -0.32426E-04   100   0.180E-01    0.253E-02
DAV:   9    -0.540667587392E+02    0.19160E-04   -0.10045E-04   100   0.701E-02
  23 F= -.54066759E+02 E0= -.53940065E+02  d E =-.820457E-02
 summed vel is now  0.000000000000000E+000  1.301042606982605E-018
 -2.710505431213761E-019
quench:  g(F)=  0.211E-02 g(S)=  0.000E+00 dE (1.order)=-0.849E-02
 bond charge predicted
       N       E                     dE             d eps       ncg     rms          rms(c)
DAV:   1    -0.540712219962E+02   -0.44441E-02   -0.20128E+00   160   0.418E+00    0.184E-01
DAV:   2    -0.540762815837E+02   -0.50596E-02   -0.43772E-02   220   0.903E-01    0.478E-01
DAV:   3    -0.540752783387E+02    0.10032E-02   -0.22612E-02   220   0.699E-01    0.298E-01
DAV:   4    -0.540743547843E+02    0.92355E-03   -0.69447E-03   200   0.327E-01    0.121E-01
DAV:   5    -0.540739049018E+02    0.44988E-03   -0.15563E-03   120   0.177E-01    0.885E-02
DAV:   6    -0.540739051676E+02   -0.26579E-06   -0.14768E-03   100   0.185E-01    0.112E-01
DAV:   7    -0.540738033235E+02    0.10184E-03   -0.12871E-03   200   0.187E-01    0.374E-02
DAV:   8    -0.540737331431E+02    0.70180E-04   -0.15348E-04   100   0.987E-02
  24 F= -.54073733E+02 E0= -.53947280E+02  d E =-.697440E-02
 summed vel is now  0.000000000000000E+000 -1.301042606982605E-018
 -3.794707603699266E-019
quench:  g(F)=  0.161E-02 g(S)=  0.000E+00 dE (1.order)=-0.877E-02
 bond charge predicted
       N       E                     dE             d eps       ncg     rms          rms(c)
DAV:   1    -0.540789183071E+02   -0.51150E-02   -0.28554E+00   160   0.477E+00    0.179E-01
DAV:   2    -0.540845299443E+02   -0.56116E-02   -0.51330E-02   240   0.101E+00    0.368E-01
DAV:   3    -0.540835431116E+02    0.98683E-03   -0.94499E-03   200   0.575E-01    0.183E-01
DAV:   4    -0.540828895779E+02    0.65353E-03   -0.20216E-03   160   0.220E-01    0.140E-01
DAV:   5    -0.540828050822E+02    0.84496E-04   -0.14851E-03   120   0.175E-01    0.138E-01
DAV:   6    -0.540827103677E+02    0.94715E-04   -0.27427E-03   140   0.205E-01    0.132E-01
DAV:   7    -0.540825010065E+02    0.20936E-03   -0.17717E-03   180   0.192E-01    0.441E-02
DAV:   8    -0.540824483357E+02    0.52671E-04   -0.17602E-04   100   0.101E-01
  25 F= -.54082448E+02 E0= -.53955617E+02  d E =-.871519E-02
 summed vel is now  0.000000000000000E+000 -8.673617379884035E-019
 -5.421010862427522E-020
quench:  g(F)=  0.178E-02 g(S)=  0.000E+00 dE (1.order)=-0.125E-01
 bond charge predicted
       N       E                     dE             d eps       ncg     rms          rms(c)
DAV:   1    -0.540881257532E+02   -0.56247E-02   -0.52429E+00   160   0.651E+00    0.239E-01
DAV:   2    -0.540979339293E+02   -0.98082E-02   -0.95902E-02   240   0.132E+00    0.447E-01
DAV:   3    -0.540968175090E+02    0.11164E-02   -0.25303E-02   200   0.716E-01    0.291E-01
DAV:   4    -0.540959153552E+02    0.90215E-03   -0.91283E-03   200   0.321E-01    0.210E-01
DAV:   5    -0.540955483628E+02    0.36699E-03   -0.32532E-03   140   0.248E-01    0.180E-01
DAV:   6    -0.540954378570E+02    0.11051E-03   -0.26397E-03   200   0.295E-01    0.163E-01
DAV:   7    -0.540949850239E+02    0.45283E-03   -0.14639E-03   200   0.277E-01    0.347E-02
DAV:   8    -0.540949144303E+02    0.70594E-04   -0.15098E-04   100   0.909E-02
  26 F= -.54094914E+02 E0= -.53967921E+02  d E =-.124661E-01
 summed vel is now  0.000000000000000E+000  0.000000000000000E+000
  5.421010862427522E-020
quench:  g(F)=  0.195E-02 g(S)=  0.000E+00 dE (1.order)=-0.168E-01
 bond charge predicted
       N       E                     dE             d eps       ncg     rms          rms(c)
DAV:   1    -0.541005310923E+02   -0.55461E-02   -0.86477E+00   160   0.828E+00    0.337E-01
DAV:   2    -0.541202584391E+02   -0.19727E-01   -0.17630E-01   240   0.203E+00    0.758E-01
DAV:   3    -0.541154349197E+02    0.48235E-02   -0.44012E-02   220   0.115E+00    0.373E-01
DAV:   4    -0.541136000414E+02    0.18349E-02   -0.13737E-02   200   0.452E-01    0.302E-01
DAV:   5    -0.541129692343E+02    0.63081E-03   -0.90353E-03   180   0.334E-01    0.224E-01
DAV:   6    -0.541125495715E+02    0.41966E-03   -0.62482E-03   200   0.327E-01    0.201E-01
DAV:   7    -0.541119041045E+02    0.64547E-03   -0.37058E-03   220   0.311E-01    0.668E-02
DAV:   8    -0.541117829012E+02    0.12120E-03   -0.41220E-04   120   0.175E-01    0.370E-02
DAV:   9    -0.541117609667E+02    0.21935E-04   -0.12360E-04   100   0.836E-02
  27 F= -.54111761E+02 E0= -.53984843E+02  d E =-.168465E-01
 summed vel is now  0.000000000000000E+000 -3.469446951953614E-018
  2.168404344971009E-019
quench:  g(F)=  0.224E-02 g(S)=  0.000E+00 dE (1.order)=-0.218E-01
 bond charge predicted
       N       E                     dE             d eps       ncg     rms          rms(c)
DAV:   1    -0.541157547289E+02   -0.39718E-02   -0.12615E+01   160   0.102E+01    0.386E-01
DAV:   2    -0.541409245146E+02   -0.25170E-01   -0.25151E-01   240   0.217E+00    0.775E-01
DAV:   3    -0.541386852835E+02    0.22392E-02   -0.90513E-02   220   0.119E+00    0.579E-01
DAV:   4    -0.541357217620E+02    0.29635E-02   -0.28746E-02   220   0.522E-01    0.292E-01
DAV:   5    -0.541347069012E+02    0.10149E-02   -0.77231E-03   200   0.410E-01    0.277E-01
DAV:   6    -0.541344841319E+02    0.22277E-03   -0.78339E-03   220   0.451E-01    0.271E-01
DAV:   7    -0.541334001729E+02    0.10840E-02   -0.49794E-03   240   0.427E-01    0.719E-02
DAV:   8    -0.541331630168E+02    0.23716E-03   -0.52552E-04   120   0.142E-01    0.431E-02
DAV:   9    -0.541331276486E+02    0.35368E-04   -0.10774E-04   100   0.970E-02
  28 F= -.54133128E+02 E0= -.54006488E+02  d E =-.213667E-01
 summed vel is now  0.000000000000000E+000  1.734723475976807E-018
  2.032879073410321E-019
quench:  g(F)=  0.282E-02 g(S)=  0.000E+00 dE (1.order)=-0.267E-01
 bond charge predicted
       N       E                     dE             d eps       ncg     rms          rms(c)
DAV:   1    -0.541358713409E+02   -0.27083E-02   -0.15265E+01   160   0.111E+01    0.533E-01
DAV:   2    -0.541817941958E+02   -0.45923E-01   -0.37868E-01   240   0.331E+00    0.130E+00
DAV:   3    -0.541633149521E+02    0.18479E-01   -0.11825E-01   220   0.210E+00    0.594E-01
DAV:   4    -0.541598351175E+02    0.34798E-02   -0.42540E-02   200   0.760E-01    0.449E-01
DAV:   5    -0.541580700834E+02    0.17650E-02   -0.16091E-02   220   0.483E-01    0.305E-01
DAV:   6    -0.541571121933E+02    0.95789E-03   -0.10128E-02   220   0.401E-01    0.245E-01
DAV:   7    -0.541562217959E+02    0.89040E-03   -0.65067E-03   220   0.408E-01    0.134E-01
DAV:   8    -0.541558754846E+02    0.34631E-03   -0.12012E-03   220   0.302E-01    0.494E-02
DAV:   9    -0.541558176702E+02    0.57814E-04   -0.21859E-04   100   0.117E-01
  29 F= -.54155818E+02 E0= -.54028862E+02  d E =-.226900E-01
 summed vel is now  0.000000000000000E+000 -3.469446951953614E-018
  4.336808689942018E-019
quench:  g(F)=  0.431E-02 g(S)=  0.000E+00 dE (1.order)=-0.276E-01
 bond charge predicted
       N       E                     dE             d eps       ncg     rms          rms(c)
DAV:   1    -0.541608353879E+02   -0.49599E-02   -0.10385E+01   160   0.952E+00    0.436E-01
DAV:   2    -0.541869863574E+02   -0.26151E-01   -0.23897E-01   240   0.212E+00    0.104E+00
DAV:   3    -0.541818379130E+02    0.51484E-02   -0.13498E-01   220   0.164E+00    0.717E-01
DAV:   4    -0.541772072524E+02    0.46307E-02   -0.45087E-02   220   0.736E-01    0.304E-01
DAV:   5    -0.541754051338E+02    0.18021E-02   -0.10628E-02   200   0.429E-01    0.222E-01
DAV:   6    -0.541753128224E+02    0.92311E-04   -0.92134E-03   220   0.408E-01    0.244E-01
DAV:   7    -0.541745771652E+02    0.73566E-03   -0.49070E-03   220   0.351E-01    0.686E-02
DAV:   8    -0.541743227864E+02    0.25438E-03   -0.66616E-04   120   0.193E-01    0.382E-02
DAV:   9    -0.541743118523E+02    0.10934E-04   -0.14298E-04   100   0.950E-02
  30 F= -.54174312E+02 E0= -.54048151E+02  d E =-.184942E-01
 summed vel is now  0.000000000000000E+000 -4.336808689942018E-019
  5.149960319306146E-019
quench:  g(F)=  0.488E-02 g(S)=  0.000E+00 dE (1.order)=-0.194E-01
 bond charge predicted
       N       E                     dE             d eps       ncg     rms          rms(c)
DAV:   1    -0.541846207222E+02   -0.10298E-01   -0.46619E+00   160   0.626E+00    0.318E-01
DAV:   2    -0.541995563390E+02   -0.14936E-01   -0.11470E-01   240   0.176E+00    0.823E-01
DAV:   3    -0.541932930851E+02    0.62633E-02   -0.42679E-02   200   0.133E+00    0.429E-01
DAV:   4    -0.541913380982E+02    0.19550E-02   -0.14734E-02   200   0.534E-01    0.266E-01
DAV:   5    -0.541904293014E+02    0.90880E-03   -0.71793E-03   180   0.316E-01    0.171E-01
DAV:   6    -0.541900273922E+02    0.40191E-03   -0.32821E-03   140   0.232E-01    0.113E-01
DAV:   7    -0.541898918517E+02    0.13554E-03   -0.19316E-03   200   0.231E-01    0.846E-02
DAV:   8    -0.541897625035E+02    0.12935E-03   -0.31663E-04   100   0.184E-01    0.256E-02
DAV:   9    -0.541897406158E+02    0.21888E-04   -0.10596E-04   100   0.708E-02
  31 F= -.54189741E+02 E0= -.54063325E+02  d E =-.154288E-01
 summed vel is now  0.000000000000000E+000 -3.469446951953614E-018
 -2.168404344971009E-019
quench:  g(F)=  0.358E-02 g(S)=  0.000E+00 dE (1.order)=-0.188E-01
 bond charge predicted
       N       E                     dE             d eps       ncg     rms          rms(c)
DAV:   1    -0.542007711079E+02   -0.11009E-01   -0.59021E+00   160   0.691E+00    0.255E-01
DAV:   2    -0.542109387479E+02   -0.10168E-01   -0.10134E-01   240   0.136E+00    0.384E-01
DAV:   3    -0.542105203180E+02    0.41843E-03   -0.23417E-02   220   0.699E-01    0.365E-01
DAV:   4    -0.542096439430E+02    0.87637E-03   -0.11950E-02   220   0.360E-01    0.207E-01
DAV:   5    -0.542090645113E+02    0.57943E-03   -0.28660E-03   200   0.274E-01    0.181E-01
DAV:   6    -0.542090689682E+02   -0.44569E-05   -0.35264E-03   220   0.319E-01    0.209E-01
DAV:   7    -0.542085511770E+02    0.51779E-03   -0.24769E-03   200   0.297E-01    0.475E-02
DAV:   8    -0.542084028860E+02    0.14829E-03   -0.29893E-04   120   0.979E-02    0.296E-02
DAV:   9    -0.542083916584E+02    0.11228E-04   -0.54487E-05   100   0.699E-02
  32 F= -.54208392E+02 E0= -.54082277E+02  d E =-.186510E-01
 summed vel is now  0.000000000000000E+000  3.469446951953614E-018
 -3.252606517456513E-019
quench:  g(F)=  0.388E-02 g(S)=  0.000E+00 dE (1.order)=-0.264E-01
 bond charge predicted
       N       E                     dE             d eps       ncg     rms          rms(c)
DAV:   1    -0.542208904974E+02   -0.12488E-01   -0.10843E+01   160   0.924E+00    0.378E-01
DAV:   2    -0.542439726680E+02   -0.23082E-01   -0.21618E-01   240   0.228E+00    0.729E-01
DAV:   3    -0.542388121081E+02    0.51606E-02   -0.43141E-02   220   0.123E+00    0.369E-01
DAV:   4    -0.542368865235E+02    0.19256E-02   -0.11699E-02   200   0.451E-01    0.254E-01
DAV:   5    -0.542360886844E+02    0.79784E-03   -0.34338E-03   200   0.322E-01    0.185E-01
DAV:   6    -0.542357785946E+02    0.31009E-03   -0.66370E-03   220   0.371E-01    0.259E-01
DAV:   7    -0.542355935261E+02    0.18507E-03   -0.68745E-03   200   0.328E-01    0.157E-01
DAV:   8    -0.542352233300E+02    0.37020E-03   -0.21885E-03   160   0.218E-01    0.562E-02
DAV:   9    -0.542351166951E+02    0.10663E-03   -0.32518E-04   120   0.967E-02    0.227E-02
DAV:  10    -0.542351021905E+02    0.14505E-04   -0.62083E-05   100   0.588E-02
  33 F= -.54235102E+02 E0= -.54109181E+02  d E =-.267105E-01
 summed vel is now  0.000000000000000E+000 -1.734723475976807E-018
 -2.168404344971009E-019
quench:  g(F)=  0.436E-02 g(S)=  0.000E+00 dE (1.order)=-0.359E-01
 bond charge predicted
       N       E                     dE             d eps       ncg     rms          rms(c)
DAV:   1    -0.542463072443E+02   -0.11191E-01   -0.17727E+01   160   0.119E+01    0.469E-01
DAV:   2    -0.542801233650E+02   -0.33816E-01   -0.34155E-01   240   0.276E+00    0.672E-01
DAV:   3    -0.542773443196E+02    0.27790E-02   -0.60866E-02   220   0.128E+00    0.553E-01
DAV:   4    -0.542750734273E+02    0.22709E-02   -0.35604E-02   220   0.626E-01    0.392E-01
DAV:   5    -0.542739585537E+02    0.11149E-02   -0.13225E-02   220   0.469E-01    0.344E-01
DAV:   6    -0.542738703110E+02    0.88243E-04   -0.11220E-02   220   0.553E-01    0.377E-01
DAV:   7    -0.542720936200E+02    0.17767E-02   -0.71603E-03   220   0.525E-01    0.826E-02
DAV:   8    -0.542716721339E+02    0.42149E-03   -0.10529E-03   140   0.188E-01    0.616E-02
DAV:   9    -0.542716132664E+02    0.58868E-04   -0.22747E-04   100   0.124E-01
  34 F= -.54271613E+02 E0= -.54146474E+02  d E =-.365111E-01
 summed vel is now  0.000000000000000E+000  0.000000000000000E+000
  4.336808689942018E-019
quench:  g(F)=  0.526E-02 g(S)=  0.000E+00 dE (1.order)=-0.477E-01
 bond charge predicted
       N       E                     dE             d eps       ncg     rms          rms(c)
DAV:   1    -0.542798928335E+02   -0.82207E-02   -0.26057E+01   160   0.144E+01    0.669E-01
DAV:   2    -0.543487515700E+02   -0.68859E-01   -0.63921E-01   240   0.429E+00    0.135E+00
DAV:   3    -0.543276743352E+02    0.21077E-01   -0.13480E-01   240   0.236E+00    0.634E-01
DAV:   4    -0.543229318084E+02    0.47425E-02   -0.33820E-02   200   0.804E-01    0.430E-01
DAV:   5    -0.543207542389E+02    0.21776E-02   -0.67885E-03   200   0.511E-01    0.299E-01
DAV:   6    -0.543219246329E+02   -0.11704E-02   -0.26924E-02   220   0.703E-01    0.613E-01
DAV:   7    -0.543198752357E+02    0.20494E-02   -0.38562E-02   220   0.695E-01    0.258E-01
DAV:   8    -0.543184600250E+02    0.14152E-02   -0.61214E-03   220   0.391E-01    0.988E-02
DAV:   9    -0.543182152207E+02    0.24480E-03   -0.88402E-04   120   0.179E-01    0.485E-02
DAV:  10    -0.543181435457E+02    0.71675E-04   -0.15360E-04   100   0.122E-01
  35 F= -.54318144E+02 E0= -.54193497E+02  d E =-.465303E-01
 summed vel is now  0.000000000000000E+000 -3.469446951953614E-018
 -1.734723475976807E-018
quench:  g(F)=  0.675E-02 g(S)=  0.000E+00 dE (1.order)=-0.594E-01
 bond charge predicted
       N       E                     dE             d eps       ncg     rms          rms(c)
DAV:   1    -0.543206500008E+02   -0.24348E-02   -0.31184E+01   160   0.162E+01    0.680E-01
DAV:   2    -0.543838334332E+02   -0.63183E-01   -0.64926E-01   240   0.383E+00    0.915E-01
DAV:   3    -0.543833310382E+02    0.50239E-03   -0.16344E-01   240   0.195E+00    0.106E+00
DAV:   4    -0.543754539188E+02    0.78771E-02   -0.10740E-01   220   0.102E+00    0.497E-01
DAV:   5    -0.543723906039E+02    0.30633E-02   -0.17446E-02   220   0.648E-01    0.391E-01
DAV:   6    -0.543718420934E+02    0.54851E-03   -0.18679E-02   220   0.733E-01    0.450E-01
DAV:   7    -0.543700090025E+02    0.18331E-02   -0.16424E-02   240   0.668E-01    0.188E-01
DAV:   8    -0.543691530932E+02    0.85591E-03   -0.32844E-03   220   0.352E-01    0.763E-02
DAV:   9    -0.543689422768E+02    0.21082E-03   -0.45656E-04   120   0.162E-01    0.328E-02
DAV:  10    -0.543689269927E+02    0.15284E-04   -0.13297E-04   140   0.891E-02
  36 F= -.54368927E+02 E0= -.54246280E+02  d E =-.507834E-01
 summed vel is now  0.000000000000000E+000  0.000000000000000E+000
 -5.421010862427522E-019
quench:  g(F)=  0.985E-02 g(S)=  0.000E+00 dE (1.order)=-0.620E-01
 bond charge predicted
       N       E                     dE             d eps       ncg     rms          rms(c)
DAV:   1    -0.543823262794E+02   -0.13384E-01   -0.23465E+01   160   0.141E+01    0.747E-01
DAV:   2    -0.544566843902E+02   -0.74358E-01   -0.63978E-01   240   0.448E+00    0.161E+00
DAV:   3    -0.544233323876E+02    0.33352E-01   -0.17710E-01   220   0.301E+00    0.687E-01
DAV:   4    -0.544181114231E+02    0.52210E-02   -0.41529E-02   200   0.990E-01    0.454E-01
DAV:   5    -0.544157488198E+02    0.23626E-02   -0.10071E-02   200   0.549E-01    0.336E-01
DAV:   6    -0.544158215517E+02   -0.72732E-04   -0.23932E-02   220   0.558E-01    0.444E-01
DAV:   7    -0.544144797428E+02    0.13418E-02   -0.24016E-02   220   0.606E-01    0.224E-01
DAV:   8    -0.544133692394E+02    0.11105E-02   -0.41208E-03   200   0.429E-01    0.748E-02
DAV:   9    -0.544132180889E+02    0.15115E-03   -0.57708E-04   120   0.176E-01    0.494E-02
DAV:  10    -0.544131604514E+02    0.57637E-04   -0.14309E-04   100   0.117E-01
  37 F= -.54413160E+02 E0= -.54290591E+02  d E =-.442335E-01
 summed vel is now  0.000000000000000E+000 -1.734723475976807E-018
  0.000000000000000E+000
quench:  g(F)=  0.113E-01 g(S)=  0.000E+00 dE (1.order)=-0.496E-01
 bond charge predicted
       N       E                     dE             d eps       ncg     rms          rms(c)
DAV:   1    -0.544356360234E+02   -0.22418E-01   -0.12960E+01   160   0.106E+01    0.458E-01
DAV:   2    -0.544602814909E+02   -0.24645E-01   -0.24222E-01   240   0.223E+00    0.636E-01
DAV:   3    -0.544596356733E+02    0.64582E-03   -0.62018E-02   240   0.144E+00    0.706E-01
DAV:   4    -0.544562035511E+02    0.34321E-02   -0.44563E-02   220   0.707E-01    0.326E-01
DAV:   5    -0.544543849113E+02    0.18186E-02   -0.11880E-02   220   0.422E-01    0.243E-01
DAV:   6    -0.544544743877E+02   -0.89476E-04   -0.12457E-02   220   0.469E-01    0.307E-01
DAV:   7    -0.544535411047E+02    0.93328E-03   -0.81149E-03   220   0.450E-01    0.101E-01
DAV:   8    -0.544530963971E+02    0.44471E-03   -0.13009E-03   180   0.244E-01    0.442E-02
DAV:   9    -0.544530625811E+02    0.33816E-04   -0.20673E-04   100   0.984E-02
  38 F= -.54453063E+02 E0= -.54332335E+02  d E =-.399021E-01
 summed vel is now  0.000000000000000E+000 -1.734723475976807E-018
 -7.047314121155779E-019
quench:  g(F)=  0.935E-02 g(S)=  0.000E+00 dE (1.order)=-0.488E-01
 bond charge predicted
       N       E                     dE             d eps       ncg     rms          rms(c)
DAV:   1    -0.544792733967E+02   -0.26177E-01   -0.15352E+01   160   0.110E+01    0.509E-01
DAV:   2    -0.545165472996E+02   -0.37274E-01   -0.34259E-01   240   0.313E+00    0.975E-01
DAV:   3    -0.545052653355E+02    0.11282E-01   -0.71184E-02   240   0.178E+00    0.460E-01
DAV:   4    -0.545026649701E+02    0.26004E-02   -0.19197E-02   200   0.619E-01    0.323E-01
DAV:   5    -0.545013406278E+02    0.13243E-02   -0.49548E-03   200   0.390E-01    0.212E-01
DAV:   6    -0.545005356258E+02    0.80500E-03   -0.60434E-03   220   0.447E-01    0.192E-01
DAV:   7    -0.545002186683E+02    0.31696E-03   -0.45923E-03   200   0.389E-01    0.147E-01
DAV:   8    -0.545000920457E+02    0.12662E-03   -0.30092E-03   120   0.193E-01    0.923E-02
DAV:   9    -0.544999500592E+02    0.14199E-03   -0.92421E-04   120   0.142E-01    0.392E-02
DAV:  10    -0.544999075610E+02    0.42498E-04   -0.15737E-04   100   0.863E-02
  39 F= -.54499908E+02 E0= -.54379939E+02  d E =-.468450E-01
 summed vel is now  0.000000000000000E+000  0.000000000000000E+000
 -6.505213034913027E-019
quench:  g(F)=  0.995E-02 g(S)=  0.000E+00 dE (1.order)=-0.652E-01
 bond charge predicted
       N       E                     dE             d eps       ncg     rms          rms(c)
DAV:   1    -0.545258600383E+02   -0.25910E-01   -0.25653E+01   160   0.144E+01    0.604E-01
DAV:   2    -0.545775778412E+02   -0.51718E-01   -0.52704E-01   240   0.357E+00    0.807E-01
DAV:   3    -0.545722252359E+02    0.53526E-02   -0.71119E-02   240   0.163E+00    0.605E-01
DAV:   4    -0.545692908672E+02    0.29344E-02   -0.45655E-02   220   0.755E-01    0.468E-01
DAV:   5    -0.545681027483E+02    0.11881E-02   -0.25584E-02   220   0.564E-01    0.413E-01
DAV:   6    -0.545682388170E+02   -0.13607E-03   -0.24291E-02   220   0.703E-01    0.500E-01
DAV:   7    -0.545655529702E+02    0.26858E-02   -0.12873E-02   220   0.659E-01    0.108E-01
DAV:   8    -0.545648104410E+02    0.74253E-03   -0.17023E-03   160   0.228E-01    0.661E-02
DAV:   9    -0.545647287082E+02    0.81733E-04   -0.22187E-04   100   0.129E-01
  40 F= -.54564729E+02 E0= -.54447083E+02  d E =-.648211E-01
 summed vel is now  0.000000000000000E+000  1.734723475976807E-018
  1.192622389734055E-018
quench:  g(F)=  0.113E-01 g(S)=  0.000E+00 dE (1.order)=-0.872E-01
 bond charge predicted
       N       E                     dE             d eps       ncg     rms          rms(c)
DAV:   1    -0.545856032452E+02   -0.20793E-01   -0.40383E+01   160   0.179E+01    0.885E-01
DAV:   2    -0.546975252115E+02   -0.11192E+00   -0.10652E+00   240   0.574E+00    0.162E+00
DAV:   3    -0.546637338970E+02    0.33791E-01   -0.19758E-01   240   0.308E+00    0.761E-01
DAV:   4    -0.546574881584E+02    0.62457E-02   -0.61247E-02   200   0.999E-01    0.560E-01
DAV:   5    -0.546549516721E+02    0.25365E-02   -0.26104E-02   200   0.659E-01    0.446E-01
DAV:   6    -0.546560653152E+02   -0.11136E-02   -0.41609E-02   240   0.787E-01    0.680E-01
DAV:   7    -0.546524696029E+02    0.35957E-02   -0.35148E-02   220   0.848E-01    0.242E-01
DAV:   8    -0.546508507021E+02    0.16189E-02   -0.56447E-03   240   0.478E-01    0.102E-01
DAV:   9    -0.546505723309E+02    0.27837E-03   -0.84819E-04   120   0.175E-01    0.424E-02
DAV:  10    -0.546505163131E+02    0.56018E-04   -0.19189E-04   100   0.116E-01
  41 F= -.54650516E+02 E0= -.54534858E+02  d E =-.857876E-01
 summed vel is now  0.000000000000000E+000  0.000000000000000E+000
  0.000000000000000E+000
quench:  g(F)=  0.135E-01 g(S)=  0.000E+00 dE (1.order)=-0.111E+00
 bond charge predicted
       N       E                     dE             d eps       ncg     rms          rms(c)
DAV:   1    -0.546578096110E+02   -0.72373E-02   -0.55016E+01   160   0.214E+01    0.964E-01
DAV:   2    -0.547849007047E+02   -0.12709E+00   -0.13201E+00   240   0.590E+00    0.124E+00
DAV:   3    -0.547705524123E+02    0.14348E-01   -0.14977E-01   240   0.265E+00    0.897E-01
DAV:   4    -0.547630750313E+02    0.74774E-02   -0.92901E-02   220   0.118E+00    0.684E-01
DAV:   5    -0.547612639085E+02    0.18111E-02   -0.57948E-02   220   0.803E-01    0.608E-01
DAV:   6    -0.547615336849E+02   -0.26978E-03   -0.58873E-02   220   0.105E+00    0.713E-01
DAV:   7    -0.547562424871E+02    0.52912E-02   -0.29397E-02   240   0.969E-01    0.187E-01
DAV:   8    -0.547547689018E+02    0.14736E-02   -0.43830E-03   220   0.423E-01    0.102E-01
DAV:   9    -0.547545062270E+02    0.26267E-03   -0.66494E-04   120   0.217E-01    0.374E-02
DAV:  10    -0.547544830526E+02    0.23174E-04   -0.26987E-04   160   0.116E-01
  42 F= -.54754483E+02 E0= -.54643076E+02  d E =-.103967E+00
 summed vel is now  0.000000000000000E+000  0.000000000000000E+000
 -1.138412281109780E-018
quench:  g(F)=  0.177E-01 g(S)=  0.000E+00 dE (1.order)=-0.130E+00
 bond charge predicted
       N       E                     dE             d eps       ncg     rms          rms(c)
DAV:   1    -0.547648705510E+02   -0.10364E-01   -0.57707E+01   160   0.219E+01    0.119E+00
DAV:   2    -0.549486701789E+02   -0.18380E+00   -0.17404E+00   240   0.762E+00    0.218E+00
DAV:   3    -0.548791003574E+02    0.69570E-01   -0.36249E-01   220   0.450E+00    0.940E-01
DAV:   4    -0.548706749510E+02    0.84254E-02   -0.11829E-01   200   0.135E+00    0.744E-01
DAV:   5    -0.548667712168E+02    0.39037E-02   -0.58350E-02   200   0.857E-01    0.583E-01
DAV:   6    -0.548658668124E+02    0.90440E-03   -0.49264E-02   240   0.847E-01    0.598E-01
DAV:   7    -0.548623024550E+02    0.35644E-02   -0.32051E-02   220   0.930E-01    0.291E-01
DAV:   8    -0.548605551476E+02    0.17473E-02   -0.56351E-03   220   0.602E-01    0.113E-01
DAV:   9    -0.548602111145E+02    0.34403E-03   -0.11692E-03   200   0.220E-01    0.643E-02
DAV:  10    -0.548601097007E+02    0.10141E-03   -0.20191E-04   100   0.144E-01    0.296E-02
DAV:  11    -0.548601138706E+02   -0.41698E-05   -0.16417E-04   100   0.723E-02
  43 F= -.54860114E+02 E0= -.54750639E+02  d E =-.105631E+00
 summed vel is now  0.000000000000000E+000 -3.469446951953614E-018
 -8.673617379884035E-019
quench:  g(F)=  0.232E-01 g(S)=  0.000E+00 dE (1.order)=-0.126E+00
 bond charge predicted
       N       E                     dE             d eps       ncg     rms          rms(c)
DAV:   1    -0.548908218052E+02   -0.30712E-01   -0.40840E+01   160   0.189E+01    0.858E-01
DAV:   2    -0.549741920483E+02   -0.83370E-01   -0.88239E-01   240   0.467E+00    0.903E-01
DAV:   3    -0.549652584642E+02    0.89336E-02   -0.70423E-02   200   0.231E+00    0.686E-01
DAV:   4    -0.549618227539E+02    0.34357E-02   -0.55820E-02   220   0.102E+00    0.582E-01
DAV:   5    -0.549602504088E+02    0.15723E-02   -0.47874E-02   220   0.717E-01    0.487E-01
DAV:   6    -0.549589269871E+02    0.13234E-02   -0.32975E-02   220   0.831E-01    0.375E-01
DAV:   7    -0.549568634628E+02    0.20635E-02   -0.13031E-02   220   0.754E-01    0.211E-01
DAV:   8    -0.549561913560E+02    0.67211E-03   -0.37272E-03   220   0.376E-01    0.905E-02
DAV:   9    -0.549559834145E+02    0.20794E-03   -0.83023E-04   120   0.195E-01    0.597E-02
DAV:  10    -0.549559129200E+02    0.70495E-04   -0.23498E-04   140   0.131E-01
  44 F= -.54955913E+02 E0= -.54850303E+02  d E =-.957990E-01
 summed vel is now  0.000000000000000E+000  0.000000000000000E+000
  9.215718466126788E-019
quench:  g(F)=  0.225E-01 g(S)=  0.000E+00 dE (1.order)=-0.109E+00
 bond charge predicted
       N       E                     dE             d eps       ncg     rms          rms(c)
DAV:   1    -0.550037823076E+02   -0.47799E-01   -0.32056E+01   160   0.163E+01    0.851E-01
DAV:   2    -0.550936053680E+02   -0.89823E-01   -0.85524E-01   240   0.527E+00    0.154E+00
DAV:   3    -0.550608560374E+02    0.32749E-01   -0.20920E-01   220   0.317E+00    0.705E-01
DAV:   4    -0.550567950829E+02    0.40610E-02   -0.81979E-02   200   0.104E+00    0.605E-01
DAV:   5    -0.550541807204E+02    0.26144E-02   -0.41778E-02   220   0.694E-01    0.425E-01
DAV:   6    -0.550528619795E+02    0.13187E-02   -0.22570E-02   220   0.635E-01    0.371E-01
DAV:   7    -0.550512225410E+02    0.16394E-02   -0.12675E-02   220   0.641E-01    0.199E-01
DAV:   8    -0.550504573940E+02    0.76515E-03   -0.23795E-03   220   0.410E-01    0.760E-02
DAV:   9    -0.550502864004E+02    0.17099E-03   -0.48216E-04   120   0.161E-01    0.490E-02
DAV:  10    -0.550502325711E+02    0.53829E-04   -0.14332E-04   100   0.115E-01
  45 F= -.55050233E+02 E0= -.54945871E+02  d E =-.943197E-01
 summed vel is now  0.000000000000000E+000  1.734723475976807E-018
  1.084202172485504E-018
quench:  g(F)=  0.212E-01 g(S)=  0.000E+00 dE (1.order)=-0.122E+00
 bond charge predicted
       N       E                     dE             d eps       ncg     rms          rms(c)
DAV:   1    -0.550964011282E+02   -0.46115E-01   -0.41819E+01   160   0.187E+01    0.851E-01
DAV:   2    -0.551917690047E+02   -0.95368E-01   -0.97333E-01   240   0.518E+00    0.116E+00
DAV:   3    -0.551764153434E+02    0.15354E-01   -0.10568E-01   240   0.245E+00    0.662E-01
DAV:   4    -0.551707454348E+02    0.56699E-02   -0.32360E-02   220   0.888E-01    0.479E-01
DAV:   5    -0.551706347414E+02    0.11069E-03   -0.38837E-02   220   0.709E-01    0.564E-01
DAV:   6    -0.551702648877E+02    0.36985E-03   -0.62467E-02   220   0.906E-01    0.562E-01
DAV:   7    -0.551670567917E+02    0.32081E-02   -0.28869E-02   240   0.782E-01    0.176E-01
DAV:   8    -0.551659607572E+02    0.10960E-02   -0.40163E-03   220   0.334E-01    0.861E-02
DAV:   9    -0.551657643691E+02    0.19639E-03   -0.56241E-04   120   0.182E-01    0.377E-02
DAV:  10    -0.551657270666E+02    0.37303E-04   -0.19437E-04   140   0.104E-01
  46 F= -.55165727E+02 E0= -.55064751E+02  d E =-.115494E+00
 summed vel is now  0.000000000000000E+000  0.000000000000000E+000
 -8.673617379884035E-019
quench:  g(F)=  0.224E-01 g(S)=  0.000E+00 dE (1.order)=-0.153E+00
 bond charge predicted
       N       E                     dE             d eps       ncg     rms          rms(c)
DAV:   1    -0.552010706009E+02   -0.35306E-01   -0.63180E+01   160   0.227E+01    0.121E+00
DAV:   2    -0.553932625196E+02   -0.19219E+00   -0.18955E+00   240   0.794E+00    0.207E+00
DAV:   3    -0.553306539618E+02    0.62609E-01   -0.33731E-01   260   0.428E+00    0.906E-01
DAV:   4    -0.553239134982E+02    0.67405E-02   -0.12723E-01   180   0.128E+00    0.828E-01
DAV:   5    -0.553196312033E+02    0.42823E-02   -0.74005E-02   200   0.902E-01    0.592E-01
DAV:   6    -0.553177160142E+02    0.19152E-02   -0.46505E-02   220   0.950E-01    0.519E-01
DAV:   7    -0.553141647205E+02    0.35513E-02   -0.27708E-02   220   0.958E-01    0.227E-01
DAV:   8    -0.553131740322E+02    0.99069E-03   -0.41117E-03   220   0.482E-01    0.127E-01
DAV:   9    -0.553127942810E+02    0.37975E-03   -0.10975E-03   200   0.227E-01    0.595E-02
DAV:  10    -0.553127065729E+02    0.87708E-04   -0.18302E-04   100   0.133E-01
  47 F= -.55312707E+02 E0= -.55213856E+02  d E =-.146980E+00
 summed vel is now  0.000000000000000E+000 -3.469446951953614E-018
  1.301042606982605E-018
quench:  g(F)=  0.249E-01 g(S)=  0.000E+00 dE (1.order)=-0.190E+00
 bond charge predicted
       N       E                     dE             d eps       ncg     rms          rms(c)
DAV:   1    -0.553180837219E+02   -0.52894E-02   -0.86587E+01   160   0.271E+01    0.134E+00
DAV:   2    -0.555562546171E+02   -0.23817E+00   -0.24529E+00   240   0.849E+00    0.193E+00
DAV:   3    -0.555085813958E+02    0.47673E-01   -0.28104E-01   240   0.412E+00    0.962E-01
DAV:   4    -0.554944287561E+02    0.14153E-01   -0.45990E-02   200   0.120E+00    0.622E-01
DAV:   5    -0.554930234822E+02    0.14053E-02   -0.41691E-02   240   0.114E+00    0.607E-01
DAV:   6    -0.554894405915E+02    0.35829E-02   -0.46336E-02   220   0.120E+00    0.407E-01
DAV:   7    -0.554887808061E+02    0.65979E-03   -0.36309E-02   220   0.717E-01    0.380E-01
DAV:   8    -0.554876686958E+02    0.11121E-02   -0.19172E-02   220   0.467E-01    0.165E-01
DAV:   9    -0.554868483031E+02    0.82039E-03   -0.37234E-03   200   0.281E-01    0.847E-02
DAV:  10    -0.554866594141E+02    0.18889E-03   -0.67251E-04   180   0.145E-01    0.330E-02
DAV:  11    -0.554866280929E+02    0.31321E-04   -0.10210E-04   120   0.830E-02
  48 F= -.55486628E+02 E0= -.55392200E+02  d E =-.173922E+00
 summed vel is now  0.000000000000000E+000  6.938893903907228E-018
  1.301042606982605E-018
quench:  g(F)=  0.290E-01 g(S)=  0.000E+00 dE (1.order)=-0.214E+00
 bond charge predicted
       N       E                     dE             d eps       ncg     rms          rms(c)
DAV:   1    -0.554837324626E+02    0.29270E-02   -0.94747E+01   160   0.284E+01    0.162E+00
DAV:   2    -0.558103440615E+02   -0.32661E+00   -0.32698E+00   240   0.106E+01    0.282E+00
DAV:   3    -0.556924302417E+02    0.11791E+00   -0.68685E-01   240   0.601E+00    0.132E+00
DAV:   4    -0.556807289044E+02    0.11701E-01   -0.31360E-01   180   0.189E+00    0.114E+00
DAV:   5    -0.556701700329E+02    0.10559E-01   -0.12643E-01   200   0.122E+00    0.681E-01
DAV:   6    -0.556669209244E+02    0.32491E-02   -0.53140E-02   220   0.112E+00    0.543E-01
DAV:   7    -0.556625066676E+02    0.44143E-02   -0.24884E-02   200   0.108E+00    0.166E-01
DAV:   8    -0.556615692416E+02    0.93743E-03   -0.32865E-03   220   0.444E-01    0.130E-01
DAV:   9    -0.556612806659E+02    0.28858E-03   -0.10284E-03   180   0.258E-01    0.774E-02
DAV:  10    -0.556612003198E+02    0.80346E-04   -0.81256E-04   160   0.169E-01
  49 F= -.55661200E+02 E0= -.55569524E+02  d E =-.174572E+00
 summed vel is now  0.000000000000000E+000 -6.938893903907228E-018
  8.673617379884035E-019
quench:  g(F)=  0.348E-01 g(S)=  0.000E+00 dE (1.order)=-0.203E+00
 bond charge predicted
       N       E                     dE             d eps       ncg     rms          rms(c)
DAV:   1    -0.556853962703E+02   -0.24116E-01   -0.70381E+01   160   0.250E+01    0.124E+00
DAV:   2    -0.558575543238E+02   -0.17216E+00   -0.18544E+00   240   0.710E+00    0.161E+00
DAV:   3    -0.558306070921E+02    0.26947E-01   -0.28462E-01   240   0.377E+00    0.102E+00
DAV:   4    -0.558183928059E+02    0.12214E-01   -0.10577E-01   220   0.140E+00    0.698E-01
DAV:   5    -0.558177568242E+02    0.63598E-03   -0.78726E-02   220   0.995E-01    0.676E-01
DAV:   6    -0.558156248784E+02    0.21319E-02   -0.63570E-02   220   0.109E+00    0.443E-01
DAV:   7    -0.558119832228E+02    0.36417E-02   -0.23417E-02   200   0.950E-01    0.159E-01
DAV:   8    -0.558113236309E+02    0.65959E-03   -0.40926E-03   220   0.414E-01    0.963E-02
DAV:   9    -0.558111158504E+02    0.20778E-03   -0.82171E-04   200   0.212E-01    0.514E-02
DAV:  10    -0.558110775623E+02    0.38288E-04   -0.37375E-04   120   0.124E-01
  50 F= -.55811078E+02 E0= -.55722685E+02  d E =-.149877E+00
 summed vel is now  0.000000000000000E+000  1.734723475976807E-018
 -1.084202172485504E-018
quench:  g(F)=  0.332E-01 g(S)=  0.000E+00 dE (1.order)=-0.161E+00
 bond charge predicted
       N       E                     dE             d eps       ncg     rms          rms(c)
DAV:   1    -0.558683426191E+02   -0.57227E-01   -0.46666E+01   160   0.200E+01    0.113E+00
DAV:   2    -0.560164042768E+02   -0.14806E+00   -0.14815E+00   240   0.707E+00    0.209E+00
DAV:   3    -0.559582894710E+02    0.58115E-01   -0.45940E-01   240   0.437E+00    0.100E+00
DAV:   4    -0.559506387836E+02    0.76507E-02   -0.18130E-01   200   0.144E+00    0.780E-01
DAV:   5    -0.559450529965E+02    0.55858E-02   -0.66219E-02   200   0.902E-01    0.450E-01
DAV:   6    -0.559435689349E+02    0.14841E-02   -0.25850E-02   220   0.774E-01    0.380E-01
DAV:   7    -0.559415408625E+02    0.20281E-02   -0.13649E-02   220   0.751E-01    0.144E-01
DAV:   8    -0.559408925300E+02    0.64833E-03   -0.26935E-03   200   0.374E-01    0.101E-01
DAV:   9    -0.559407356131E+02    0.15692E-03   -0.82233E-04   140   0.184E-01    0.593E-02
DAV:  10    -0.559406645699E+02    0.71043E-04   -0.24436E-04   100   0.126E-01
  51 F= -.55940665E+02 E0= -.55854219E+02  d E =-.129587E+00
 summed vel is now  0.000000000000000E+000 -3.469446951953614E-018
 -1.301042606982605E-018
quench:  g(F)=  0.275E-01 g(S)=  0.000E+00 dE (1.order)=-0.153E+00
 bond charge predicted
       N       E                     dE             d eps       ncg     rms          rms(c)
DAV:   1    -0.559916474316E+02   -0.50912E-01   -0.50629E+01   160   0.208E+01    0.106E+00
DAV:   2    -0.561278046172E+02   -0.13616E+00   -0.13828E+00   240   0.649E+00    0.169E+00
DAV:   3    -0.560914537993E+02    0.36351E-01   -0.26960E-01   240   0.351E+00    0.748E-01
DAV:   4    -0.560822463284E+02    0.92075E-02   -0.37629E-02   200   0.942E-01    0.441E-01
DAV:   5    -0.560821366873E+02    0.10964E-03   -0.27258E-02   260   0.827E-01    0.512E-01
DAV:   6    -0.560817672955E+02    0.36939E-03   -0.61201E-02   220   0.937E-01    0.501E-01
DAV:   7    -0.560797964378E+02    0.19709E-02   -0.38402E-02   220   0.740E-01    0.215E-01
DAV:   8    -0.560786054539E+02    0.11910E-02   -0.67972E-03   200   0.341E-01    0.100E-01
DAV:   9    -0.560783560281E+02    0.24943E-03   -0.82612E-04   120   0.187E-01    0.562E-02
DAV:  10    -0.560782643242E+02    0.91704E-04   -0.29676E-04   100   0.978E-02
  52 F= -.56078264E+02 E0= -.55995300E+02  d E =-.137600E+00
 summed vel is now  0.000000000000000E+000  3.469446951953614E-018
 -9.757819552369540E-019
quench:  g(F)=  0.251E-01 g(S)=  0.000E+00 dE (1.order)=-0.172E+00
 bond charge predicted
       N       E                     dE             d eps       ncg     rms          rms(c)
DAV:   1    -0.561073810448E+02   -0.29025E-01   -0.70272E+01   160   0.243E+01    0.143E+00
DAV:   2    -0.563620877023E+02   -0.25471E+00   -0.25676E+00   240   0.941E+00    0.269E+00
DAV:   3    -0.562540883141E+02    0.10800E+00   -0.67700E-01   240   0.541E+00    0.101E+00
DAV:   4    -0.562449699497E+02    0.91184E-02   -0.15881E-01   200   0.150E+00    0.823E-01
DAV:   5    -0.562399952013E+02    0.49747E-02   -0.80810E-02   220   0.102E+00    0.599E-01
DAV:   6    -0.562380318407E+02    0.19634E-02   -0.48540E-02   220   0.940E-01    0.514E-01
DAV:   7    -0.562343477061E+02    0.36841E-02   -0.29010E-02   220   0.996E-01    0.147E-01
DAV:   8    -0.562335474577E+02    0.80025E-03   -0.38244E-03   200   0.375E-01    0.101E-01
DAV:   9    -0.562333480739E+02    0.19938E-03   -0.75525E-04   140   0.216E-01    0.622E-02
DAV:  10    -0.562332945182E+02    0.53556E-04   -0.47252E-04   140   0.131E-01
  53 F= -.56233295E+02 E0= -.56153458E+02  d E =-.155030E+00
 summed vel is now  0.000000000000000E+000 -1.040834085586084E-017
  6.505213034913027E-019
quench:  g(F)=  0.229E-01 g(S)=  0.000E+00 dE (1.order)=-0.181E+00
 bond charge predicted
       N       E                     dE             d eps       ncg     rms          rms(c)
DAV:   1    -0.562210319323E+02    0.12316E-01   -0.85588E+01   160   0.273E+01    0.151E+00
DAV:   2    -0.564961370287E+02   -0.27511E+00   -0.28849E+00   240   0.942E+00    0.256E+00
DAV:   3    -0.564081012682E+02    0.88036E-01   -0.71950E-01   240   0.524E+00    0.107E+00
DAV:   4    -0.563927849136E+02    0.15316E-01   -0.78110E-02   200   0.136E+00    0.614E-01
DAV:   5    -0.563938480767E+02   -0.10632E-02   -0.72907E-02   260   0.113E+00    0.838E-01
DAV:   6    -0.563903018452E+02    0.35462E-02   -0.10929E-01   220   0.125E+00    0.553E-01
DAV:   7    -0.563862409597E+02    0.40609E-02   -0.46940E-02   220   0.105E+00    0.238E-01
DAV:   8    -0.563851066834E+02    0.11343E-02   -0.62388E-03   200   0.417E-01    0.114E-01
DAV:   9    -0.563847663334E+02    0.34035E-03   -0.80713E-04   160   0.241E-01    0.753E-02
DAV:  10    -0.563846349399E+02    0.13139E-03   -0.48410E-04   140   0.961E-02    0.250E-02
DAV:  11    -0.563846193248E+02    0.15615E-04   -0.63304E-05   140   0.599E-02
  54 F= -.56384619E+02 E0= -.56309237E+02  d E =-.151325E+00
 summed vel is now  0.000000000000000E+000 -1.734723475976807E-018
  0.000000000000000E+000
quench:  g(F)=  0.225E-01 g(S)=  0.000E+00 dE (1.order)=-0.162E+00
 bond charge predicted
       N       E                     dE             d eps       ncg     rms          rms(c)
DAV:   1    -0.563769222185E+02    0.77127E-02   -0.69560E+01   160   0.248E+01    0.150E+00
DAV:   2    -0.566385492319E+02   -0.26163E+00   -0.27886E+00   240   0.950E+00    0.288E+00
DAV:   3    -0.565137772908E+02    0.12477E+00   -0.92816E-01   220   0.602E+00    0.105E+00
DAV:   4    -0.565037765300E+02    0.10001E-01   -0.14931E-01   200   0.161E+00    0.779E-01
DAV:   5    -0.564989335756E+02    0.48430E-02   -0.78607E-02   220   0.106E+00    0.588E-01
DAV:   6    -0.564974784182E+02    0.14552E-02   -0.49340E-02   220   0.964E-01    0.500E-01
DAV:   7    -0.564938661411E+02    0.36123E-02   -0.26371E-02   200   0.943E-01    0.135E-01
DAV:   8    -0.564931259401E+02    0.74020E-03   -0.26885E-03   200   0.363E-01    0.822E-02
DAV:   9    -0.564929631951E+02    0.16274E-03   -0.35370E-04   140   0.182E-01    0.490E-02
DAV:  10    -0.564929331269E+02    0.30068E-04   -0.41466E-04   160   0.110E-01
  55 F= -.56492933E+02 E0= -.56421036E+02  d E =-.108314E+00
 summed vel is now  0.000000000000000E+000  0.000000000000000E+000
 -4.336808689942018E-019
quench:  g(F)=  0.215E-01 g(S)=  0.000E+00 dE (1.order)=-0.956E-01
 bond charge predicted
       N       E                     dE             d eps       ncg     rms          rms(c)
DAV:   1    -0.565239385381E+02   -0.30975E-01   -0.25080E+01   160   0.150E+01    0.773E-01
DAV:   2    -0.565794898800E+02   -0.55551E-01   -0.61241E-01   240   0.391E+00    0.107E+00
DAV:   3    -0.565674594661E+02    0.12030E-01   -0.18094E-01   220   0.257E+00    0.708E-01
DAV:   4    -0.565633167791E+02    0.41427E-02   -0.61254E-02   220   0.101E+00    0.415E-01
DAV:   5    -0.565618609560E+02    0.14558E-02   -0.28690E-02   220   0.664E-01    0.354E-01
DAV:   6    -0.565610136740E+02    0.84728E-03   -0.19136E-02   220   0.657E-01    0.263E-01
DAV:   7    -0.565596101876E+02    0.14035E-02   -0.85158E-03   220   0.542E-01    0.102E-01
DAV:   8    -0.565593261327E+02    0.28405E-03   -0.14095E-03   200   0.263E-01    0.439E-02
DAV:   9    -0.565592698989E+02    0.56234E-04   -0.19934E-04   140   0.995E-02
  56 F= -.56559270E+02 E0= -.56489397E+02  d E =-.663368E-01
 summed vel is now  0.000000000000000E+000 -5.204170427930421E-018
 -2.168404344971009E-019
quench:  g(F)=  0.119E-01 g(S)=  0.000E+00 dE (1.order)=-0.605E-01
 bond charge predicted
       N       E                     dE             d eps       ncg     rms          rms(c)
DAV:   1    -0.565870959033E+02   -0.27770E-01   -0.18318E+01   160   0.125E+01    0.709E-01
DAV:   2    -0.566466886432E+02   -0.59593E-01   -0.61838E-01   240   0.431E+00    0.145E+00
DAV:   3    -0.566165442100E+02    0.30144E-01   -0.22522E-01   220   0.283E+00    0.443E-01
DAV:   4    -0.566132490899E+02    0.32951E-02   -0.15536E-02   200   0.631E-01    0.274E-01
DAV:   5    -0.566131012720E+02    0.14782E-03   -0.12034E-02   280   0.530E-01    0.319E-01
DAV:   6    -0.566130121161E+02    0.89156E-04   -0.22275E-02   220   0.556E-01    0.292E-01
DAV:   7    -0.566119510961E+02    0.10610E-02   -0.10755E-02   220   0.474E-01    0.825E-02
DAV:   8    -0.566116044048E+02    0.34669E-03   -0.10535E-03   140   0.181E-01    0.433E-02
DAV:   9    -0.566115656225E+02    0.38782E-04   -0.12526E-04   140   0.843E-02
  57 F= -.56611566E+02 E0= -.56543869E+02  d E =-.522957E-01
 summed vel is now  0.000000000000000E+000 -6.938893903907228E-018
 -2.710505431213761E-019
quench:  g(F)=  0.854E-02 g(S)=  0.000E+00 dE (1.order)=-0.614E-01
 bond charge predicted
       N       E                     dE             d eps       ncg     rms          rms(c)
DAV:   1    -0.566249860968E+02   -0.13382E-01   -0.26177E+01   160   0.149E+01    0.822E-01
DAV:   2    -0.567030387337E+02   -0.78053E-01   -0.82459E-01   240   0.494E+00    0.156E+00
DAV:   3    -0.566710008755E+02    0.32038E-01   -0.26665E-01   260   0.304E+00    0.561E-01
DAV:   4    -0.566664093448E+02    0.45915E-02   -0.28468E-02   180   0.731E-01    0.351E-01
DAV:   5    -0.566664855622E+02   -0.76217E-04   -0.27561E-02   220   0.637E-01    0.434E-01
DAV:   6    -0.566652641237E+02    0.12214E-02   -0.24238E-02   220   0.648E-01    0.205E-01
DAV:   7    -0.566640291514E+02    0.12350E-02   -0.64834E-03   220   0.510E-01    0.833E-02
DAV:   8    -0.566639391300E+02    0.90021E-04   -0.73430E-04   180   0.169E-01
  58 F= -.56663939E+02 E0= -.56598946E+02  d E =-.523735E-01
 summed vel is now  0.000000000000000E+000  3.469446951953614E-018
  2.168404344971009E-019
quench:  g(F)=  0.552E-02 g(S)=  0.000E+00 dE (1.order)=-0.542E-01
 bond charge predicted
       N       E                     dE             d eps       ncg     rms          rms(c)
DAV:   1    -0.566563754867E+02    0.76537E-02   -0.31564E+01   160   0.165E+01    0.972E-01
DAV:   2    -0.567656188618E+02   -0.10924E+00   -0.11493E+00   240   0.604E+00    0.195E+00
DAV:   3    -0.567125884466E+02    0.53030E-01   -0.41285E-01   240   0.393E+00    0.634E-01
DAV:   4    -0.567062375575E+02    0.63509E-02   -0.47586E-02   180   0.866E-01    0.435E-01
DAV:   5    -0.567055861321E+02    0.65143E-03   -0.31261E-02   260   0.661E-01    0.407E-01
DAV:   6    -0.567048749134E+02    0.71122E-03   -0.22703E-02   220   0.710E-01    0.287E-01
DAV:   7    -0.567034475023E+02    0.14274E-02   -0.83017E-03   200   0.620E-01    0.912E-02
DAV:   8    -0.567031987101E+02    0.24879E-03   -0.89558E-04   180   0.228E-01    0.536E-02
DAV:   9    -0.567031386740E+02    0.60036E-04   -0.14072E-04   140   0.112E-01
  59 F= -.56703139E+02 E0= -.56641597E+02  d E =-.391995E-01
 summed vel is now  0.000000000000000E+000  5.204170427930421E-018
  7.047314121155779E-019
quench:  g(F)=  0.420E-02 g(S)=  0.000E+00 dE (1.order)=-0.333E-01
 bond charge predicted
       N       E                     dE             d eps       ncg     rms          rms(c)
DAV:   1    -0.566971750258E+02    0.60237E-02   -0.15605E+01   160   0.118E+01    0.628E-01
DAV:   2    -0.567324632138E+02   -0.35288E-01   -0.39388E-01   240   0.301E+00    0.967E-01
DAV:   3    -0.567249732916E+02    0.74899E-02   -0.17458E-01   240   0.217E+00    0.684E-01
DAV:   4    -0.567204127038E+02    0.45606E-02   -0.59267E-02   220   0.940E-01    0.321E-01
DAV:   5    -0.567187147162E+02    0.16980E-02   -0.13047E-02   200   0.534E-01    0.227E-01
DAV:   6    -0.567182871749E+02    0.42754E-03   -0.82508E-03   220   0.522E-01    0.197E-01
DAV:   7    -0.567175024672E+02    0.78471E-03   -0.43394E-03   200   0.431E-01    0.665E-02
DAV:   8    -0.567173527243E+02    0.14974E-03   -0.62524E-04   140   0.182E-01    0.325E-02
DAV:   9    -0.567173321914E+02    0.20533E-04   -0.14939E-04   140   0.872E-02
  60 F= -.56717332E+02 E0= -.56656971E+02  d E =-.141935E-01
 summed vel is now  0.000000000000000E+000  3.794707603699266E-019
  1.626303258728257E-019
quench:  g(F)=  0.445E-02 g(S)=  0.000E+00 dE (1.order)=-0.446E-02
 bond charge predicted
       N       E                     dE             d eps       ncg     rms          rms(c)
DAV:   1    -0.567210220071E+02   -0.36693E-02   -0.26321E-01   160   0.154E+00    0.832E-02
DAV:   2    -0.567216800324E+02   -0.65803E-03   -0.65346E-03   220   0.412E-01    0.135E-01
DAV:   3    -0.567214453929E+02    0.23464E-03   -0.19829E-03   160   0.331E-01    0.532E-02
DAV:   4    -0.567213637701E+02    0.81623E-04   -0.33875E-04   100   0.103E-01
  61 F= -.56721364E+02 E0= -.56661082E+02  d E =-.403158E-02
 summed vel is now  0.000000000000000E+000 -1.084202172485504E-018
 -6.505213034913027E-019
quench:  g(F)=  0.265E-02 g(S)=  0.000E+00 dE (1.order)=-0.872E-02
 bond charge predicted
       N       E                     dE             d eps       ncg     rms          rms(c)
DAV:   1    -0.567257101928E+02   -0.42648E-02   -0.16848E+00   160   0.390E+00    0.214E-01
DAV:   2    -0.567300516800E+02   -0.43415E-02   -0.42060E-02   240   0.107E+00    0.352E-01
DAV:   3    -0.567285261070E+02    0.15256E-02   -0.15288E-02   200   0.838E-01    0.170E-01
DAV:   4    -0.567280468928E+02    0.47921E-03   -0.48388E-03   180   0.277E-01    0.127E-01
DAV:   5    -0.567278378924E+02    0.20900E-03   -0.24141E-03   140   0.188E-01    0.878E-02
DAV:   6    -0.567277029973E+02    0.13490E-03   -0.12823E-03   160   0.194E-01    0.666E-02
DAV:   7    -0.567276225702E+02    0.80427E-04   -0.31146E-04   100   0.142E-01
  62 F= -.56727623E+02 E0= -.56668053E+02  d E =-.625880E-02
 summed vel is now  0.000000000000000E+000  1.301042606982605E-018
  1.626303258728257E-019
quench:  g(F)=  0.104E-02 g(S)=  0.000E+00 dE (1.order)=-0.594E-02
 bond charge predicted
       N       E                     dE             d eps       ncg     rms          rms(c)
DAV:   1    -0.567303944066E+02   -0.26914E-02   -0.19938E+00   160   0.416E+00    0.216E-01
DAV:   2    -0.567364860733E+02   -0.60917E-02   -0.62265E-02   240   0.112E+00    0.499E-01
DAV:   3    -0.567342492224E+02    0.22369E-02   -0.34752E-02   200   0.876E-01    0.205E-01
DAV:   4    -0.567333676176E+02    0.88160E-03   -0.64898E-03   180   0.299E-01    0.116E-01
DAV:   5    -0.567330542465E+02    0.31337E-03   -0.14447E-03   140   0.177E-01    0.746E-02
DAV:   6    -0.567328424809E+02    0.21177E-03   -0.81819E-04   160   0.136E-01    0.381E-02
DAV:   7    -0.567328154282E+02    0.27053E-04   -0.10034E-04   140   0.973E-02
  63 F= -.56732815E+02 E0= -.56674194E+02  d E =-.519286E-02
 summed vel is now  0.000000000000000E+000  0.000000000000000E+000
  3.252606517456513E-019
quench:  g(F)=  0.767E-03 g(S)=  0.000E+00 dE (1.order)=-0.653E-02
 bond charge predicted
       N       E                     dE             d eps       ncg     rms          rms(c)
DAV:   1    -0.567341224084E+02   -0.12799E-02   -0.32721E+00   160   0.535E+00    0.283E-01
DAV:   2    -0.567442628298E+02   -0.10140E-01   -0.10670E-01   240   0.146E+00    0.659E-01
DAV:   3    -0.567403622446E+02    0.39006E-02   -0.61374E-02   200   0.113E+00    0.270E-01
DAV:   4    -0.567389518805E+02    0.14104E-02   -0.10508E-02   180   0.394E-01    0.144E-01
DAV:   5    -0.567385025415E+02    0.44934E-03   -0.21635E-03   140   0.228E-01    0.987E-02
DAV:   6    -0.567382286240E+02    0.27392E-03   -0.15013E-03   220   0.203E-01    0.627E-02
DAV:   7    -0.567381411110E+02    0.87513E-04   -0.26490E-04   140   0.165E-01
  64 F= -.56738141E+02 E0= -.56680642E+02  d E =-.532568E-02
 summed vel is now  0.000000000000000E+000  8.673617379884035E-019
  2.710505431213761E-019
quench:  g(F)=  0.399E-03 g(S)=  0.000E+00 dE (1.order)=-0.533E-02
 bond charge predicted
       N       E                     dE             d eps       ncg     rms          rms(c)
DAV:   1    -0.567375071294E+02    0.72149E-03   -0.41766E+00   160   0.609E+00    0.331E-01
DAV:   2    -0.567523771118E+02   -0.14870E-01   -0.16192E-01   240   0.172E+00    0.864E-01
DAV:   3    -0.567457771762E+02    0.65999E-02   -0.10496E-01   200   0.141E+00    0.310E-01
DAV:   4    -0.567436518928E+02    0.21253E-02   -0.13019E-02   180   0.442E-01    0.153E-01
DAV:   5    -0.567431507093E+02    0.50118E-03   -0.23706E-03   180   0.260E-01    0.115E-01
DAV:   6    -0.567427777589E+02    0.37295E-03   -0.16397E-03   220   0.223E-01    0.637E-02
DAV:   7    -0.567426816466E+02    0.96112E-04   -0.27258E-04   140   0.164E-01
  65 F= -.56742682E+02 E0= -.56686079E+02  d E =-.454054E-02
 summed vel is now  0.000000000000000E+000  6.505213034913027E-019
 -6.505213034913027E-019
quench:  g(F)=  0.281E-03 g(S)=  0.000E+00 dE (1.order)=-0.430E-02
 bond charge predicted
       N       E                     dE             d eps       ncg     rms          rms(c)
DAV:   1    -0.567415027017E+02    0.12751E-02   -0.38865E+00   160   0.587E+00    0.411E-01
DAV:   2    -0.567642403675E+02   -0.22738E-01   -0.26481E-01   240   0.202E+00    0.125E+00
DAV:   3    -0.567498654363E+02    0.14375E-01   -0.21218E-01   200   0.183E+00    0.350E-01
DAV:   4    -0.567464758587E+02    0.33896E-02   -0.16553E-02   180   0.514E-01    0.132E-01
DAV:   5    -0.567459252997E+02    0.55056E-03   -0.18991E-03   240   0.287E-01    0.114E-01
DAV:   6    -0.567457521576E+02    0.17314E-03   -0.14954E-03   180   0.258E-01    0.934E-02
DAV:   7    -0.567455870142E+02    0.16514E-03   -0.86222E-04   160   0.219E-01    0.343E-02
DAV:   8    -0.567455608674E+02    0.26147E-04   -0.16161E-04   100   0.925E-02
  66 F= -.56745561E+02 E0= -.56689925E+02  d E =-.287922E-02
 summed vel is now  0.000000000000000E+000 -1.192622389734055E-018
  2.710505431213761E-019
quench:  g(F)=  0.667E-03 g(S)=  0.000E+00 dE (1.order)=-0.326E-02
 bond charge predicted
       N       E                     dE             d eps       ncg     rms          rms(c)
DAV:   1    -0.567461935958E+02   -0.60658E-03   -0.92412E-01   160   0.287E+00    0.157E-01
DAV:   2    -0.567488845560E+02   -0.26910E-02   -0.28327E-02   240   0.798E-01    0.327E-01
DAV:   3    -0.567480973347E+02    0.78722E-03   -0.17585E-02   200   0.647E-01    0.170E-01
DAV:   4    -0.567475604323E+02    0.53690E-03   -0.38130E-03   180   0.247E-01    0.742E-02
DAV:   5    -0.567473828002E+02    0.17763E-03   -0.62060E-04   100   0.130E-01    0.538E-02
DAV:   6    -0.567473467510E+02    0.36049E-04   -0.40036E-04   100   0.141E-01
  67 F= -.56747347E+02 E0= -.56692241E+02  d E =-.178588E-02
 summed vel is now  0.000000000000000E+000 -1.219727444046192E-019
 -2.710505431213761E-020
quench:  g(F)=  0.348E-03 g(S)=  0.000E+00 dE (1.order)=-0.103E-02
 bond charge predicted
       N       E                     dE             d eps       ncg     rms          rms(c)
DAV:   1    -0.567479191771E+02   -0.53638E-03   -0.17850E-01   160   0.126E+00    0.838E-02
DAV:   2    -0.567487950608E+02   -0.87588E-03   -0.98918E-03   260   0.438E-01    0.232E-01
DAV:   3    -0.567484130109E+02    0.38205E-03   -0.75276E-03   180   0.372E-01    0.792E-02
DAV:   4    -0.567481742574E+02    0.23875E-03   -0.82354E-04   140   0.125E-01    0.282E-02
DAV:   5    -0.567481395641E+02    0.34693E-04   -0.81792E-05   100   0.610E-02
  68 F= -.56748140E+02 E0= -.56692821E+02  d E =-.792813E-03
 summed vel is now  0.000000000000000E+000  8.131516293641283E-020
 -3.117081245895825E-019
quench:  g(F)=  0.257E-03 g(S)=  0.000E+00 dE (1.order)=-0.125E-02
 reached required accuracy - stopping structural energy minimisation
