 vasp.5.4.1 05Feb16 (build Nov 22 2018 20:17:51) complex                        
  
 POSCAR found type information on POSCAR  Pd H 
 03/POSCAR found :  2 types and       5 ions
 scaLAPACK will be used

 ----------------------------------------------------------------------------- 
|                                                                             |
|           W    W    AA    RRRRR   N    N  II  N    N   GGGG   !!!           |
|           W    W   A  A   R    R  NN   N  II  NN   N  G    G  !!!           |
|           W    W  A    A  R    R  N N  N  II  N N  N  G       !!!           |
|           W WW W  AAAAAA  RRRRR   N  N N  II  N  N N  G  GGG   !            |
|           WW  WW  A    A  R   R   N   NN  II  N   NN  G    G                |
|           W    W  A    A  R    R  N    N  II  N    N   GGGG   !!!           |
|                                                                             |
|      For optimal performance we recommend to set                            |
|        NCORE= 4 - approx SQRT( number of cores)                             |
|      NCORE specifies how many cores store one orbital (NPAR=cpu/NCORE).     |
|      This setting can  greatly improve the performance of VASP for DFT.     |
|      The default, NPAR=number of cores might be grossly inefficient         |
|      on modern multi-core architectures or massively parallel machines.     |
|      Do your own testing !!!!                                               |
|      Unfortunately you need to use the default for GW and RPA calculations. |
|      (for HF NCORE is supported but not extensively tested yet)             |
|                                                                             |
 ----------------------------------------------------------------------------- 

 LDA part: xc-table for Ceperly-Alder, standard interpolation
 POSCAR found type information on POSCAR  Pd H 
 00/POSCAR found :  2 types and       5 ions
 POSCAR found type information on POSCAR  Pd H 
 05/POSCAR found :  2 types and       5 ions
 Jacobian:    5.26317925886129     
 POSCAR, INCAR and KPOINTS ok, starting setup
 WARNING: small aliasing (wrap around) errors must be expected
 FFT: planning ...
 WAVECAR not read
 entering main loop
       N       E                     dE             d eps       ncg     rms          rms(c)
DAV:   1     0.386044985936E+03    0.38604E+03   -0.19433E+04  5800   0.160E+03
DAV:   2    -0.132958464030E+01   -0.38737E+03   -0.36856E+03  5815   0.456E+02
DAV:   3    -0.212152747654E+02   -0.19886E+02   -0.17919E+02  6850   0.107E+02
DAV:   4    -0.217796924490E+02   -0.56442E+00   -0.56137E+00  6185   0.211E+01
DAV:   5    -0.217934651580E+02   -0.13773E-01   -0.13770E-01  6985   0.279E+00    0.648E+00
DAV:   6    -0.209181139852E+02    0.87535E+00   -0.30388E+00  6860   0.234E+01    0.272E+00
DAV:   7    -0.209648042306E+02   -0.46690E-01   -0.15084E+00  7725   0.248E+01    0.296E+00
DAV:   8    -0.207858906086E+02    0.17891E+00   -0.26946E-01  8115   0.119E+01    0.845E-01
DAV:   9    -0.207734190384E+02    0.12472E-01   -0.58807E-02  8695   0.333E+00    0.315E-01
DAV:  10    -0.207732441365E+02    0.17490E-03   -0.18032E-02  7715   0.266E+00    0.317E-01
DAV:  11    -0.207714793955E+02    0.17647E-02   -0.54008E-03  7780   0.169E+00    0.622E-02
DAV:  12    -0.207714679252E+02    0.11470E-04   -0.35160E-04  6025   0.218E-01    0.359E-02
DAV:  13    -0.207714480288E+02    0.19896E-04   -0.46437E-05  6515   0.104E-01    0.881E-03
DAV:  14    -0.207714476677E+02    0.36102E-06   -0.12840E-05  3110   0.365E-02
   1 F= -.20771448E+02 E0= -.20771310E+02  d E =-.207714E+02
quench:  g(F)=  0.000E+00 g(S)=  0.000E+00 dE (1.order)= 0.000E+00
 bond charge predicted
       N       E                     dE             d eps       ncg     rms          rms(c)
DAV:   1    -0.243807912477E+02   -0.36093E+01   -0.26136E+02  5800   0.133E+02    0.839E+00
DAV:   2    -0.234543429673E+02    0.92645E+00   -0.14229E+01  8720   0.308E+01    0.312E+00
DAV:   3    -0.234337768086E+02    0.20566E-01   -0.13918E+00  8215   0.211E+01    0.384E+00
DAV:   4    -0.232331366380E+02    0.20064E+00   -0.56067E-01  7990   0.131E+01    0.109E+00
DAV:   5    -0.232068328229E+02    0.26304E-01   -0.10648E-01  8810   0.301E+00    0.376E-01
DAV:   6    -0.232046221210E+02    0.22107E-02   -0.66893E-03  6455   0.934E-01    0.104E-01
DAV:   7    -0.232045514476E+02    0.70673E-04   -0.73539E-04  7540   0.291E-01    0.462E-02
DAV:   8    -0.232045716203E+02   -0.20173E-04   -0.15418E-04  6580   0.133E-01    0.102E-02
DAV:   9    -0.232045709008E+02    0.71953E-06   -0.10582E-05  3560   0.457E-02
   2 F= -.23204571E+02 E0= -.23204336E+02  d E =-.243312E+01
quench:  g(F)=  0.000E+00 g(S)=  0.000E+00 dE (1.order)= 0.000E+00
 bond charge predicted
       N       E                     dE             d eps       ncg     rms          rms(c)
DAV:   1    -0.233853055231E+02   -0.18073E+00   -0.25119E+02  5800   0.993E+01    0.307E+00
DAV:   2    -0.241874694856E+02   -0.80216E+00   -0.11801E+01  8755   0.226E+01    0.217E+00
DAV:   3    -0.240937780364E+02    0.93691E-01   -0.23759E-01  6845   0.559E+00    0.140E+00
DAV:   4    -0.240861499686E+02    0.76281E-02   -0.22296E-02  8765   0.179E+00    0.115E+00
DAV:   5    -0.240644357887E+02    0.21714E-01   -0.30555E-02  7655   0.982E-01    0.707E-01
DAV:   6    -0.240543880425E+02    0.10048E-01   -0.48726E-02  8895   0.136E+00    0.722E-02
DAV:   7    -0.240544254664E+02   -0.37424E-04   -0.74215E-04  7330   0.212E-01    0.524E-02
DAV:   8    -0.240543298733E+02    0.95593E-04   -0.32033E-04  7185   0.109E-01    0.113E-02
DAV:   9    -0.240543308048E+02   -0.93157E-06   -0.11434E-05  3310   0.307E-02
   3 F= -.24054331E+02 E0= -.24054101E+02  d E =-.849760E+00
quench:  g(F)=  0.000E+00 g(S)=  0.000E+00 dE (1.order)= 0.000E+00
 bond charge predicted
       N       E                     dE             d eps       ncg     rms          rms(c)
DAV:   1    -0.238693464900E+02    0.18498E+00   -0.24729E+02  5800   0.953E+01    0.417E+00
DAV:   2    -0.243178179614E+02   -0.44847E+00   -0.11214E+01  8675   0.240E+01    0.179E+00
DAV:   3    -0.242675533531E+02    0.50265E-01   -0.31884E-01  8125   0.738E+00    0.132E+00
DAV:   4    -0.242496527411E+02    0.17901E-01   -0.69254E-02  8530   0.504E+00    0.787E-01
DAV:   5    -0.242388811127E+02    0.10772E-01   -0.59220E-02  8720   0.194E+00    0.156E-01
DAV:   6    -0.242388921366E+02   -0.11024E-04   -0.31918E-03  6065   0.411E-01    0.974E-02
DAV:   7    -0.242388152197E+02    0.76917E-04   -0.87195E-04  7145   0.202E-01    0.179E-02
DAV:   8    -0.242388132015E+02    0.20181E-05   -0.38069E-05  5810   0.599E-02
   4 F= -.24238813E+02 E0= -.24238698E+02  d E =-.184482E+00
quench:  g(F)=  0.000E+00 g(S)=  0.000E+00 dE (1.order)= 0.000E+00
 bond charge predicted
       N       E                     dE             d eps       ncg     rms          rms(c)
DAV:   1    -0.247451972528E+02   -0.50638E+00   -0.10353E+01  5810   0.372E+01    0.437E+00
DAV:   2    -0.242727026047E+02    0.47249E+00   -0.20541E+00  5850   0.158E+01    0.568E-01
DAV:   3    -0.242771206451E+02   -0.44180E-02   -0.65705E-02  7770   0.401E+00    0.730E-01
DAV:   4    -0.242707525374E+02    0.63681E-02   -0.17828E-02  7800   0.270E+00    0.264E-01
DAV:   5    -0.242700778827E+02    0.67465E-03   -0.57146E-03  6240   0.641E-01    0.646E-02
DAV:   6    -0.242701705495E+02   -0.92667E-04   -0.39729E-04  6865   0.146E-01    0.303E-02
DAV:   7    -0.242701799468E+02   -0.93972E-05   -0.43082E-05  5960   0.453E-02
   5 F= -.24270180E+02 E0= -.24270065E+02  d E =-.313667E-01
quench:  g(F)=  0.000E+00 g(S)=  0.000E+00 dE (1.order)= 0.000E+00
 bond charge predicted
       N       E                     dE             d eps       ncg     rms          rms(c)
DAV:   1    -0.242815899181E+02   -0.11419E-01   -0.27534E+00  5800   0.996E+00    0.265E-01
DAV:   2    -0.242896623488E+02   -0.80724E-02   -0.11358E-01  8785   0.209E+00    0.225E-01
DAV:   3    -0.242886117730E+02    0.10506E-02   -0.21918E-03  6505   0.360E-01    0.142E-01
DAV:   4    -0.242882886222E+02    0.32315E-03   -0.12781E-03  8855   0.305E-01    0.809E-02
DAV:   5    -0.242881884014E+02    0.10022E-03   -0.26401E-04  8860   0.253E-01    0.367E-02
DAV:   6    -0.242881677787E+02    0.20623E-04   -0.18068E-04  8645   0.891E-02    0.926E-03
DAV:   7    -0.242881638517E+02    0.39269E-05   -0.17780E-05  3195   0.320E-02
   6 F= -.24288164E+02 E0= -.24288046E+02  d E =-.179839E-01
quench:  g(F)=  0.000E+00 g(S)=  0.000E+00 dE (1.order)= 0.000E+00
 bond charge predicted
       N       E                     dE             d eps       ncg     rms          rms(c)
DAV:   1    -0.242873042002E+02    0.86358E-03   -0.46312E+00  5800   0.129E+01    0.342E-01
DAV:   2    -0.243006600435E+02   -0.13356E-01   -0.18750E-01  8770   0.269E+00    0.287E-01
DAV:   3    -0.242989622571E+02    0.16978E-02   -0.36777E-03  6470   0.487E-01    0.183E-01
DAV:   4    -0.242985518097E+02    0.41045E-03   -0.16087E-03  8870   0.436E-01    0.129E-01
DAV:   5    -0.242982546549E+02    0.29715E-03   -0.81318E-04  8875   0.361E-01    0.450E-02
DAV:   6    -0.242982265688E+02    0.28086E-04   -0.27622E-04  8765   0.113E-01    0.112E-02
DAV:   7    -0.242982211403E+02    0.54286E-05   -0.24432E-05  3965   0.369E-02
   7 F= -.24298221E+02 E0= -.24298078E+02  d E =-.100573E-01
quench:  g(F)=  0.000E+00 g(S)=  0.000E+00 dE (1.order)= 0.000E+00
 bond charge predicted
       N       E                     dE             d eps       ncg     rms          rms(c)
DAV:   1    -0.242927954571E+02    0.54311E-02   -0.21506E+00  5800   0.884E+00    0.261E-01
DAV:   2    -0.242987103274E+02   -0.59149E-02   -0.86092E-02  8700   0.182E+00    0.198E-01
DAV:   3    -0.242978883046E+02    0.82202E-03   -0.17059E-03  6455   0.294E-01    0.123E-01
DAV:   4    -0.242976049549E+02    0.28335E-03   -0.13471E-03  8835   0.239E-01    0.506E-02
DAV:   5    -0.242975830313E+02    0.21924E-04   -0.12709E-04  7830   0.207E-01    0.319E-02
DAV:   6    -0.242975729719E+02    0.10059E-04   -0.72929E-05  7605   0.884E-02    0.617E-03
DAV:   7    -0.242975728729E+02    0.99032E-07   -0.70530E-06  2960   0.215E-02
   8 F= -.24297573E+02 E0= -.24297401E+02  d E =0.648267E-03
quench:  g(F)=  0.000E+00 g(S)=  0.000E+00 dE (1.order)= 0.000E+00
 bond charge predicted
       N       E                     dE             d eps       ncg     rms          rms(c)
DAV:   1    -0.242984151476E+02   -0.84218E-03   -0.38699E-02  5800   0.145E+00    0.125E-01
DAV:   2    -0.242981159887E+02    0.29916E-03   -0.17825E-03  8970   0.370E-01    0.482E-02
DAV:   3    -0.242980489689E+02    0.67020E-04   -0.10299E-04  6390   0.746E-02    0.186E-02
DAV:   4    -0.242980400782E+02    0.88906E-05   -0.22861E-05  4675   0.394E-02
   9 F= -.24298040E+02 E0= -.24297873E+02  d E =-.467205E-03
quench:  g(F)=  0.000E+00 g(S)=  0.000E+00 dE (1.order)= 0.000E+00
 bond charge predicted
       N       E                     dE             d eps       ncg     rms          rms(c)
DAV:   1    -0.242988125554E+02   -0.76359E-03   -0.82405E-02  5800   0.193E+00    0.135E-01
DAV:   2    -0.242986336463E+02    0.17891E-03   -0.38652E-03  9120   0.457E-01    0.643E-02
DAV:   3    -0.242985631924E+02    0.70454E-04   -0.31281E-04  8670   0.273E-01    0.585E-02
DAV:   4    -0.242985224448E+02    0.40748E-04   -0.21416E-04  7950   0.274E-01    0.325E-02
DAV:   5    -0.242985006210E+02    0.21824E-04   -0.38666E-05  3905   0.107E-01    0.502E-03
DAV:   6    -0.242985013208E+02   -0.69978E-06   -0.14595E-05  2920   0.340E-02
  10 F= -.24298501E+02 E0= -.24298343E+02  d E =-.461243E-03
quench:  g(F)=  0.000E+00 g(S)=  0.000E+00 dE (1.order)= 0.000E+00
 bond charge predicted
       N       E                     dE             d eps       ncg     rms          rms(c)
DAV:   1    -0.242991663671E+02   -0.66575E-03   -0.10744E-01  5800   0.231E+00    0.170E-01
DAV:   2    -0.242987934650E+02    0.37290E-03   -0.58207E-03  9080   0.532E-01    0.665E-02
DAV:   3    -0.242986738188E+02    0.11965E-03   -0.24779E-04  7120   0.121E-01    0.320E-02
DAV:   4    -0.242986727173E+02    0.11015E-05   -0.12877E-04  8150   0.180E-01    0.386E-02
DAV:   5    -0.242986514405E+02    0.21277E-04   -0.53002E-05  5615   0.148E-01    0.620E-03
DAV:   6    -0.242986521272E+02   -0.68666E-06   -0.90351E-06  2915   0.265E-02
  11 F= -.24298652E+02 E0= -.24298505E+02  d E =-.150806E-03
quench:  g(F)=  0.000E+00 g(S)=  0.000E+00 dE (1.order)= 0.000E+00
 bond charge predicted
       N       E                     dE             d eps       ncg     rms          rms(c)
DAV:   1    -0.242997730685E+02   -0.11216E-02   -0.42864E-02  5845   0.210E+00    0.224E-01
DAV:   2    -0.242985176763E+02    0.12554E-02   -0.50038E-03  6615   0.778E-01    0.360E-02
DAV:   3    -0.242985029169E+02    0.14759E-04   -0.13856E-04  7710   0.120E-01    0.257E-02
DAV:   4    -0.242984969039E+02    0.60130E-05   -0.31235E-05  4440   0.116E-01
  12 F= -.24298497E+02 E0= -.24298355E+02  d E =0.155223E-03
quench:  g(F)=  0.000E+00 g(S)=  0.000E+00 dE (1.order)= 0.000E+00
 bond charge predicted
       N       E                     dE             d eps       ncg     rms          rms(c)
DAV:   1    -0.242983852190E+02    0.11770E-03   -0.98750E-03  5800   0.752E-01    0.663E-02
DAV:   2    -0.242982944481E+02    0.90771E-04   -0.56461E-04  6915   0.228E-01    0.120E-02
DAV:   3    -0.242982942289E+02    0.21919E-06   -0.15499E-05  3835   0.333E-02
  13 F= -.24298294E+02 E0= -.24298153E+02  d E =0.202675E-03
quench:  g(F)=  0.000E+00 g(S)=  0.000E+00 dE (1.order)= 0.000E+00
 bond charge predicted
       N       E                     dE             d eps       ncg     rms          rms(c)
DAV:   1    -0.242980907741E+02    0.20367E-03   -0.11029E-02  5800   0.623E-01    0.377E-02
DAV:   2    -0.242980872381E+02    0.35360E-05   -0.31250E-04  7865   0.149E-01    0.214E-02
DAV:   3    -0.242980877322E+02   -0.49410E-06   -0.45398E-05  5355   0.132E-01
  14 F= -.24298088E+02 E0= -.24297952E+02  d E =0.206497E-03
quench:  g(F)=  0.000E+00 g(S)=  0.000E+00 dE (1.order)= 0.000E+00
 bond charge predicted
       N       E                     dE             d eps       ncg     rms          rms(c)
DAV:   1    -0.242978967370E+02    0.19050E-03   -0.38362E-02  5800   0.125E+00    0.587E-02
DAV:   2    -0.242979596178E+02   -0.62881E-04   -0.16868E-03  8915   0.260E-01    0.320E-02
DAV:   3    -0.242979376483E+02    0.21969E-04   -0.50701E-05  6370   0.667E-02    0.191E-02
DAV:   4    -0.242979365801E+02    0.10682E-05   -0.27161E-05  3395   0.102E-01
  15 F= -.24297937E+02 E0= -.24297800E+02  d E =0.151152E-03
quench:  g(F)=  0.000E+00 g(S)=  0.000E+00 dE (1.order)= 0.000E+00
 bond charge predicted
       N       E                     dE             d eps       ncg     rms          rms(c)
DAV:   1    -0.242978511888E+02    0.86460E-04   -0.11503E-02  5810   0.729E-01    0.532E-02
DAV:   2    -0.242978145082E+02    0.36681E-04   -0.42218E-04  8090   0.166E-01    0.231E-02
DAV:   3    -0.242978013651E+02    0.13143E-04   -0.22911E-05  3905   0.402E-02    0.100E-02
DAV:   4    -0.242978006880E+02    0.67710E-06   -0.11030E-05  3000   0.359E-02
  16 F= -.24297801E+02 E0= -.24297668E+02  d E =0.135892E-03
quench:  g(F)=  0.000E+00 g(S)=  0.000E+00 dE (1.order)= 0.000E+00
 bond charge predicted
       N       E                     dE             d eps       ncg     rms          rms(c)
DAV:   1    -0.242978203733E+02   -0.19008E-04   -0.14988E-02  5800   0.983E-01    0.860E-02
DAV:   2    -0.242976630876E+02    0.15729E-03   -0.96674E-04  7555   0.292E-01    0.211E-02
DAV:   3    -0.242976636386E+02   -0.55105E-06   -0.66286E-05  6510   0.133E-01
  17 F= -.24297664E+02 E0= -.24297533E+02  d E =0.137049E-03
quench:  g(F)=  0.000E+00 g(S)=  0.000E+00 dE (1.order)= 0.000E+00
 bond charge predicted
       N       E                     dE             d eps       ncg     rms          rms(c)
DAV:   1    -0.242975238610E+02    0.13923E-03   -0.22307E-02  5800   0.961E-01    0.505E-02
DAV:   2    -0.242975549368E+02   -0.31076E-04   -0.10472E-03  9020   0.225E-01    0.272E-02
DAV:   3    -0.242975386737E+02    0.16263E-04   -0.32150E-05  4280   0.779E-02    0.190E-02
DAV:   4    -0.242975361535E+02    0.25202E-05   -0.31851E-05  3480   0.110E-01
  18 F= -.24297536E+02 E0= -.24297407E+02  d E =0.127485E-03
quench:  g(F)=  0.000E+00 g(S)=  0.000E+00 dE (1.order)= 0.000E+00
 bond charge predicted
       N       E                     dE             d eps       ncg     rms          rms(c)
DAV:   1    -0.242975177561E+02    0.20918E-04   -0.10055E-02  5800   0.711E-01    0.519E-02
DAV:   2    -0.242974805333E+02    0.37223E-04   -0.47575E-04  8145   0.159E-01    0.193E-02
DAV:   3    -0.242974721177E+02    0.84156E-05   -0.19886E-05  3835   0.444E-02
  19 F= -.24297472E+02 E0= -.24297348E+02  d E =0.640358E-04
quench:  g(F)=  0.000E+00 g(S)=  0.000E+00 dE (1.order)= 0.000E+00
 bond charge predicted
       N       E                     dE             d eps       ncg     rms          rms(c)
DAV:   1    -0.242974589801E+02    0.21553E-04   -0.80995E-03  5800   0.690E-01    0.588E-02
DAV:   2    -0.242974088268E+02    0.50153E-04   -0.57400E-04  8200   0.248E-01    0.289E-02
DAV:   3    -0.242974141418E+02   -0.53150E-05   -0.14900E-04  7785   0.240E-01    0.321E-02
DAV:   4    -0.242973976413E+02    0.16500E-04   -0.30218E-05  3530   0.124E-01    0.655E-03
DAV:   5    -0.242973988055E+02   -0.11642E-05   -0.15042E-05  3300   0.249E-02
  20 F= -.24297399E+02 E0= -.24297276E+02  d E =0.733122E-04
quench:  g(F)=  0.000E+00 g(S)=  0.000E+00 dE (1.order)= 0.000E+00
 bond charge predicted
       N       E                     dE             d eps       ncg     rms          rms(c)
DAV:   1    -0.242973005032E+02    0.97138E-04   -0.81265E-03  5800   0.527E-01    0.141E-02
DAV:   2    -0.242973187983E+02   -0.18295E-04   -0.21236E-04  7820   0.103E-01    0.970E-03
DAV:   3    -0.242973179597E+02    0.83861E-06   -0.51057E-06  3240   0.257E-02
  21 F= -.24297318E+02 E0= -.24297195E+02  d E =0.808458E-04
quench:  g(F)=  0.000E+00 g(S)=  0.000E+00 dE (1.order)= 0.000E+00
 bond charge predicted
       N       E                     dE             d eps       ncg     rms          rms(c)
DAV:   1    -0.242972256345E+02    0.93164E-04   -0.14505E-02  5800   0.754E-01    0.297E-02
DAV:   2    -0.242972604083E+02   -0.34774E-04   -0.65748E-04  7980   0.154E-01    0.174E-02
DAV:   3    -0.242972549125E+02    0.54958E-05   -0.20547E-05  4265   0.503E-02
  22 F= -.24297255E+02 E0= -.24297135E+02  d E =0.630472E-04
quench:  g(F)=  0.000E+00 g(S)=  0.000E+00 dE (1.order)= 0.000E+00
 bond charge predicted
       N       E                     dE             d eps       ncg     rms          rms(c)
DAV:   1    -0.242972773881E+02   -0.16980E-04   -0.80349E-03  5805   0.668E-01    0.548E-02
DAV:   2    -0.242972425840E+02    0.34804E-04   -0.71709E-04  8635   0.201E-01    0.201E-02
DAV:   3    -0.242972414491E+02    0.11349E-05   -0.66819E-05  6305   0.152E-01
  23 F= -.24297241E+02 E0= -.24297119E+02  d E =0.134634E-04
quench:  g(F)=  0.000E+00 g(S)=  0.000E+00 dE (1.order)= 0.000E+00
 reached required accuracy - stopping structural energy minimisation
 writing wavefunctions
