 running on   20 total cores
 distrk:  each k-point on   20 cores,    1 groups
 distr:  one band on    1 cores,   20 groups
 using from now: INCAR     
 vasp.5.4.1 05Feb16 (build Nov 22 2018 20:17:51) complex                        
  
 POSCAR found type information on POSCAR  Pd
 POSCAR found :  1 types and       4 ions
 scaLAPACK will be used

 ----------------------------------------------------------------------------- 
|                                                                             |
|           W    W    AA    RRRRR   N    N  II  N    N   GGGG   !!!           |
|           W    W   A  A   R    R  NN   N  II  NN   N  G    G  !!!           |
|           W    W  A    A  R    R  N N  N  II  N N  N  G       !!!           |
|           W WW W  AAAAAA  RRRRR   N  N N  II  N  N N  G  GGG   !            |
|           WW  WW  A    A  R   R   N   NN  II  N   NN  G    G                |
|           W    W  A    A  R    R  N    N  II  N    N   GGGG   !!!           |
|                                                                             |
|      For optimal performance we recommend to set                            |
|        NCORE= 4 - approx SQRT( number of cores)                             |
|      NCORE specifies how many cores store one orbital (NPAR=cpu/NCORE).     |
|      This setting can  greatly improve the performance of VASP for DFT.     |
|      The default, NPAR=number of cores might be grossly inefficient         |
|      on modern multi-core architectures or massively parallel machines.     |
|      Do your own testing !!!!                                               |
|      Unfortunately you need to use the default for GW and RPA calculations. |
|      (for HF NCORE is supported but not extensively tested yet)             |
|                                                                             |
 ----------------------------------------------------------------------------- 

 LDA part: xc-table for Ceperly-Alder, standard interpolation
 POSCAR found type information on POSCAR  Pd
 POSCAR found :  1 types and       4 ions
 POSCAR, INCAR and KPOINTS ok, starting setup
 WARNING: small aliasing (wrap around) errors must be expected
 FFT: planning ...
 WAVECAR not read
 entering main loop
       N       E                     dE             d eps       ncg     rms          rms(c)
DAV:   1     0.291735859548E+03    0.29174E+03   -0.18802E+04  4540   0.101E+03
DAV:   2    -0.158157310186E+02   -0.30755E+03   -0.26942E+03  4480   0.265E+02
DAV:   3    -0.216643906450E+02   -0.58487E+01   -0.58136E+01  6600   0.424E+01
DAV:   4    -0.217684810985E+02   -0.10409E+00   -0.10407E+00  5500   0.511E+00
DAV:   5    -0.217698312872E+02   -0.13502E-02   -0.13492E-02  6560   0.486E-01    0.647E+00
DAV:   6    -0.207992246338E+02    0.97061E+00   -0.16613E+00  6600   0.125E+01    0.104E+00
DAV:   7    -0.207765250294E+02    0.22700E-01   -0.11675E-01  5080   0.132E+00    0.473E-01
DAV:   8    -0.207647117499E+02    0.11813E-01   -0.97887E-03  6440   0.777E-01    0.134E-01
DAV:   9    -0.207645083644E+02    0.20339E-03   -0.82040E-04  5880   0.254E-01    0.356E-02
DAV:  10    -0.207644956459E+02    0.12718E-04   -0.79854E-05  5900   0.786E-02    0.109E-02
DAV:  11    -0.207644927928E+02    0.28531E-05   -0.63941E-06  4880   0.239E-02
   1 F= -.20764493E+02 E0= -.20764310E+02  d E =-.207645E+02
 curvature:   0.00 expect dE= 0.000E+00 dE for cont linesearch  0.000E+00
 trial: gam= 0.00000 g(F)=  0.675E-60 g(S)=  0.903E-01 ort = 0.000E+00 (trialstep = 0.100E+01)
 search vector abs. value=  0.903E-01
 bond charge predicted
       N       E                     dE             d eps       ncg     rms          rms(c)
DAV:   1    -0.211642838685E+02   -0.39979E+00   -0.49264E+00  4480   0.194E+01    0.376E+00
DAV:   2    -0.208303059182E+02    0.33398E+00   -0.74736E-01  5540   0.822E+00    0.355E-01
DAV:   3    -0.208300212508E+02    0.28467E-03   -0.91484E-03  5940   0.587E-01    0.213E-01
DAV:   4    -0.208300839264E+02   -0.62676E-04   -0.41514E-03  6040   0.415E-01    0.439E-02
DAV:   5    -0.208300359088E+02    0.48018E-04   -0.26872E-04  5720   0.121E-01    0.175E-02
DAV:   6    -0.208300313633E+02    0.45454E-05   -0.78280E-06  4860   0.198E-02
   2 F= -.20830031E+02 E0= -.20829962E+02  d E =-.655386E-01
 trial-energy change:   -0.065539  1 .order   -0.066005   -0.090288   -0.041722
 step:   1.9691(harm=  1.8591)  dis= 0.00000  next Energy=   -20.849823 (dE=-0.853E-01)
 bond charge predicted
       N       E                     dE             d eps       ncg     rms          rms(c)
DAV:   1    -0.211673835191E+02   -0.33735E+00   -0.45791E+00  4480   0.187E+01    0.368E+00
DAV:   2    -0.208501910208E+02    0.31719E+00   -0.72725E-01  5760   0.808E+00    0.363E-01
DAV:   3    -0.208497972174E+02    0.39380E-03   -0.94125E-03  5660   0.666E-01    0.208E-01
DAV:   4    -0.208499225260E+02   -0.12531E-03   -0.40565E-03  6300   0.409E-01    0.458E-02
DAV:   5    -0.208498692988E+02    0.53227E-04   -0.28947E-04  5480   0.126E-01    0.170E-02
DAV:   6    -0.208498646897E+02    0.46091E-05   -0.73325E-06  5080   0.186E-02
   3 F= -.20849865E+02 E0= -.20849768E+02  d E =-.853719E-01
 curvature:  -0.91 expect dE=-0.636E-05 dE for cont linesearch -0.636E-05
 trial: gam= 0.00000 g(F)=  0.421E-60 g(S)=  0.696E-05 ort =-0.793E-03 (trialstep = 0.119E+01)
 search vector abs. value=  0.696E-05
 reached required accuracy - stopping structural energy minimisation
 writing wavefunctions
