 running on   40 total cores
 distrk:  each k-point on   40 cores,    1 groups
 distr:  one band on    1 cores,   40 groups
 using from now: INCAR     
 vasp.5.4.1 05Feb16 (build Sep 02 2018 21:45:25) complex                        
  
 POSCAR found type information on POSCAR  H  N 
 POSCAR found :  2 types and       4 ions
 scaLAPACK will be used

 ----------------------------------------------------------------------------- 
|                                                                             |
|           W    W    AA    RRRRR   N    N  II  N    N   GGGG   !!!           |
|           W    W   A  A   R    R  NN   N  II  NN   N  G    G  !!!           |
|           W    W  A    A  R    R  N N  N  II  N N  N  G       !!!           |
|           W WW W  AAAAAA  RRRRR   N  N N  II  N  N N  G  GGG   !            |
|           WW  WW  A    A  R   R   N   NN  II  N   NN  G    G                |
|           W    W  A    A  R    R  N    N  II  N    N   GGGG   !!!           |
|                                                                             |
|      For optimal performance we recommend to set                            |
|        NCORE= 4 - approx SQRT( number of cores)                             |
|      NCORE specifies how many cores store one orbital (NPAR=cpu/NCORE).     |
|      This setting can  greatly improve the performance of VASP for DFT.     |
|      The default, NPAR=number of cores might be grossly inefficient         |
|      on modern multi-core architectures or massively parallel machines.     |
|      Do your own testing !!!!                                               |
|      Unfortunately you need to use the default for GW and RPA calculations. |
|      (for HF NCORE is supported but not extensively tested yet)             |
|                                                                             |
 ----------------------------------------------------------------------------- 

 LDA part: xc-table for Ceperly-Alder, standard interpolation
 POSCAR, INCAR and KPOINTS ok, starting setup
 WARNING: small aliasing (wrap around) errors must be expected
 FFT: planning ...
 WAVECAR not read
 entering main loop
       N       E                     dE             d eps       ncg     rms          rms(c)
DAV:   1     0.432566430944E+02    0.43257E+02   -0.14841E+03   240   0.747E+01
DAV:   2    -0.110732555866E+02   -0.54330E+02   -0.48271E+02   240   0.230E+01
DAV:   3    -0.161164936508E+02   -0.50432E+01   -0.50432E+01   160   0.914E+00
DAV:   4    -0.161827783240E+02   -0.66285E-01   -0.66285E-01   160   0.147E+00
DAV:   5    -0.161833955371E+02   -0.61721E-03   -0.61721E-03   240   0.142E-01    0.153E+01
DAV:   6    -0.822507369057E+01    0.79583E+01   -0.41205E+01   240   0.935E+00    0.602E+00
DAV:   7    -0.138085625309E+02   -0.55835E+01   -0.38772E+00   160   0.251E+00    0.352E+00
DAV:   8    -0.157215014729E+02   -0.19129E+01   -0.56575E-01   320   0.109E+00    0.199E+00
DAV:   9    -0.177572393166E+02   -0.20357E+01   -0.50292E-01   160   0.997E-01    0.678E-01
DAV:  10    -0.181208230715E+02   -0.36358E+00   -0.39182E-02   280   0.290E-01    0.523E-01
DAV:  11    -0.185562452936E+02   -0.43542E+00   -0.65548E-03   320   0.167E-01    0.362E-01
DAV:  12    -0.191889366874E+02   -0.63269E+00   -0.33103E-02   200   0.308E-01    0.177E-01
DAV:  13    -0.193491294685E+02   -0.16019E+00   -0.11741E-02   200   0.190E-01    0.113E-01
DAV:  14    -0.194847775287E+02   -0.13565E+00   -0.86809E-03   200   0.150E-01    0.644E-02
DAV:  15    -0.195676931989E+02   -0.82916E-01   -0.26771E-03   280   0.915E-02    0.314E-02
DAV:  16    -0.195920367866E+02   -0.24344E-01   -0.79280E-04   160   0.531E-02    0.149E-02
DAV:  17    -0.196027127870E+02   -0.10676E-01   -0.57183E-04   240   0.390E-02    0.835E-03
DAV:  18    -0.196043968228E+02   -0.16840E-02   -0.74918E-05   240   0.195E-02    0.461E-03
DAV:  19    -0.196051862041E+02   -0.78938E-03   -0.71415E-05   160   0.180E-02    0.306E-03
DAV:  20    -0.196054613115E+02   -0.27511E-03   -0.43052E-05   160   0.145E-02    0.249E-03
DAV:  21    -0.196060004372E+02   -0.53913E-03   -0.13065E-05   160   0.819E-03    0.174E-03
DAV:  22    -0.196065512658E+02   -0.55083E-03   -0.81764E-06   160   0.637E-03    0.125E-03
DAV:  23    -0.196066559504E+02   -0.10468E-03   -0.28242E-06   160   0.406E-03    0.749E-04
DAV:  24    -0.196067448784E+02   -0.88928E-04   -0.15566E-06   200   0.286E-03    0.454E-04
DAV:  25    -0.196067893249E+02   -0.44446E-04   -0.85127E-07   160   0.199E-03    0.342E-04
DAV:  26    -0.196068292019E+02   -0.39877E-04   -0.36402E-07   240   0.133E-03    0.198E-04
DAV:  27    -0.196068452343E+02   -0.16032E-04   -0.20754E-07   200   0.109E-03    0.134E-04
DAV:  28    -0.196068320460E+02    0.13188E-04   -0.14705E-07   200   0.875E-04    0.756E-05
DAV:  29    -0.196068283146E+02    0.37314E-05   -0.23182E-08   240   0.351E-04    0.390E-05
DAV:  30    -0.196068253009E+02    0.30137E-05   -0.30953E-08   200   0.438E-04    0.405E-05
DAV:  31    -0.196068244260E+02    0.87481E-06   -0.82122E-09   240   0.240E-04
   1 F= -.19606824E+02 E0= -.19606824E+02  d E =-.178467E-30  mag=    -0.0000
 Finite differences POTIM= 0.02000 DOF=  12
 bond charge predicted
       N       E                     dE             d eps       ncg     rms          rms(c)
DAV:   1    -0.196043757066E+02    0.24496E-02   -0.14279E-01   160   0.745E-01    0.135E-01
DAV:   2    -0.196043453019E+02    0.30405E-04   -0.20722E-03   320   0.869E-02    0.839E-02
DAV:   3    -0.196042835782E+02    0.61724E-04   -0.22753E-04   160   0.282E-02    0.240E-02
DAV:   4    -0.196042840021E+02   -0.42385E-06   -0.38870E-05   160   0.112E-02    0.757E-03
DAV:   5    -0.196042896316E+02   -0.56296E-05   -0.23395E-06   160   0.310E-03    0.295E-03
DAV:   6    -0.196043011622E+02   -0.11531E-04   -0.25957E-06   160   0.269E-03    0.108E-03
DAV:   7    -0.196043086877E+02   -0.75255E-05   -0.95379E-07   160   0.173E-03    0.714E-04
DAV:   8    -0.196043237033E+02   -0.15016E-04   -0.26271E-06   160   0.215E-03    0.440E-04
DAV:   9    -0.196043314541E+02   -0.77507E-05   -0.82000E-07   160   0.170E-03    0.288E-04
DAV:  10    -0.196043410645E+02   -0.96104E-05   -0.10357E-06   160   0.192E-03    0.230E-04
DAV:  11    -0.196043474152E+02   -0.63507E-05   -0.34421E-07   320   0.141E-03    0.130E-04
DAV:  12    -0.196043544909E+02   -0.70756E-05   -0.17394E-07   160   0.894E-04    0.108E-04
DAV:  13    -0.196043545030E+02   -0.12123E-07   -0.87565E-08   160   0.632E-04
   2 F= -.19604355E+02 E0= -.19604355E+02  d E =-.171450E-33  mag=     0.0000
 Finite differences progress:
  Degree of freedom:   1/ 12
  Displacement:        1/  2
  Total:               1/ 24
 bond charge predicted
       N       E                     dE             d eps       ncg     rms          rms(c)
DAV:   1    -0.196041978825E+02    0.15661E-03   -0.56416E-01   160   0.150E+00    0.273E-01
DAV:   2    -0.196040278811E+02    0.17000E-03   -0.84699E-03   160   0.170E-01    0.164E-01
DAV:   3    -0.196037886899E+02    0.23919E-03   -0.90315E-04   160   0.565E-02    0.520E-02
DAV:   4    -0.196037684179E+02    0.20272E-04   -0.18437E-04   160   0.233E-02    0.162E-02
DAV:   5    -0.196037777557E+02   -0.93378E-05   -0.12944E-05   160   0.656E-03    0.670E-03
DAV:   6    -0.196038284750E+02   -0.50719E-04   -0.10789E-05   160   0.534E-03    0.212E-03
DAV:   7    -0.196038678105E+02   -0.39336E-04   -0.40925E-06   160   0.287E-03    0.133E-03
DAV:   8    -0.196039180251E+02   -0.50215E-04   -0.59355E-06   160   0.339E-03    0.884E-04
DAV:   9    -0.196039556255E+02   -0.37600E-04   -0.65063E-06   160   0.470E-03    0.591E-04
DAV:  10    -0.196039745049E+02   -0.18879E-04   -0.31480E-06   160   0.415E-03    0.458E-04
DAV:  11    -0.196039987715E+02   -0.24267E-04   -0.21483E-06   160   0.269E-03    0.232E-04
DAV:  12    -0.196040074758E+02   -0.87043E-05   -0.49046E-07   240   0.167E-03    0.224E-04
DAV:  13    -0.196040156117E+02   -0.81359E-05   -0.18853E-07   160   0.884E-04    0.988E-05
DAV:  14    -0.196040155160E+02    0.95648E-07   -0.16635E-07   160   0.733E-04
   3 F= -.19604016E+02 E0= -.19604016E+02  d E =-.200894E-28  mag=    -0.0000
 Finite differences progress:
  Degree of freedom:   1/ 12
  Displacement:        2/  2
  Total:               2/ 24
 bond charge predicted
       N       E                     dE             d eps       ncg     rms          rms(c)
DAV:   1    -0.196012958844E+02    0.27197E-02   -0.26702E-01   160   0.102E+00    0.154E-01
DAV:   2    -0.196014173206E+02   -0.12144E-03   -0.23649E-03   160   0.962E-02    0.925E-02
DAV:   3    -0.196013918833E+02    0.25437E-04   -0.15548E-04   160   0.241E-02    0.267E-02
DAV:   4    -0.196013849763E+02    0.69070E-05   -0.30631E-05   160   0.913E-03    0.536E-03
DAV:   5    -0.196013962088E+02   -0.11233E-04   -0.23590E-06   320   0.266E-03    0.276E-03
DAV:   6    -0.196014253379E+02   -0.29129E-04   -0.67580E-06   160   0.380E-03    0.109E-03
DAV:   7    -0.196014499331E+02   -0.24595E-04   -0.44142E-06   160   0.305E-03    0.816E-04
DAV:   8    -0.196014672310E+02   -0.17298E-04   -0.24245E-06   160   0.275E-03    0.530E-04
DAV:   9    -0.196014850172E+02   -0.17786E-04   -0.26564E-06   320   0.252E-03    0.386E-04
DAV:  10    -0.196014925360E+02   -0.75188E-05   -0.42941E-07   160   0.152E-03    0.268E-04
DAV:  11    -0.196015049617E+02   -0.12426E-04   -0.44116E-07   160   0.139E-03    0.157E-04
DAV:  12    -0.196015139674E+02   -0.90057E-05   -0.27972E-07   240   0.117E-03    0.128E-04
DAV:  13    -0.196015143572E+02   -0.38981E-06   -0.12384E-07   160   0.677E-04
   4 F= -.19601514E+02 E0= -.19601514E+02  d E =-.315234E-44  mag=     0.0000
 Finite differences progress:
  Degree of freedom:   2/ 12
  Displacement:        1/  2
  Total:               3/ 24
 bond charge predicted
       N       E                     dE             d eps       ncg     rms          rms(c)
DAV:   1    -0.196030998595E+02   -0.15859E-02   -0.63890E-01   160   0.141E+00    0.371E-01
DAV:   2    -0.196013684021E+02    0.17315E-02   -0.12022E-02   160   0.182E-01    0.208E-01
DAV:   3    -0.196010349802E+02    0.33342E-03   -0.22428E-03   240   0.757E-02    0.725E-02
DAV:   4    -0.196010088374E+02    0.26143E-04   -0.81672E-04   160   0.389E-02    0.354E-02
DAV:   5    -0.196009934202E+02    0.15417E-04   -0.16622E-04   320   0.179E-02    0.682E-03
DAV:   6    -0.196010127835E+02   -0.19363E-04   -0.66694E-06   160   0.463E-03    0.271E-03
DAV:   7    -0.196010306516E+02   -0.17868E-04   -0.35590E-06   160   0.293E-03    0.102E-03
DAV:   8    -0.196010514037E+02   -0.20752E-04   -0.33558E-06   160   0.327E-03    0.683E-04
DAV:   9    -0.196010620464E+02   -0.10643E-04   -0.23353E-06   160   0.349E-03    0.520E-04
DAV:  10    -0.196010712211E+02   -0.91747E-05   -0.13283E-06   320   0.259E-03    0.309E-04
DAV:  11    -0.196010871286E+02   -0.15908E-04   -0.11668E-06   160   0.173E-03    0.216E-04
DAV:  12    -0.196010925833E+02   -0.54547E-05   -0.17666E-07   240   0.909E-04    0.160E-04
DAV:  13    -0.196010945386E+02   -0.19553E-05   -0.13534E-07   160   0.749E-04    0.634E-05
DAV:  14    -0.196010933427E+02    0.11959E-05   -0.55512E-08   240   0.502E-04    0.647E-05
DAV:  15    -0.196010928185E+02    0.52420E-06   -0.14077E-08   200   0.293E-04
   5 F= -.19601093E+02 E0= -.19601093E+02  d E =-.286754E-19  mag=     0.0000
 Finite differences progress:
  Degree of freedom:   2/ 12
  Displacement:        2/  2
  Total:               4/ 24
 bond charge predicted
       N       E                     dE             d eps       ncg     rms          rms(c)
DAV:   1    -0.196063133821E+02   -0.52200E-02   -0.31764E-01   160   0.102E+00    0.276E-01
DAV:   2    -0.196054051248E+02    0.90826E-03   -0.76968E-03   200   0.144E-01    0.147E-01
DAV:   3    -0.196051829786E+02    0.22215E-03   -0.66895E-04   160   0.445E-02    0.551E-02
DAV:   4    -0.196051654760E+02    0.17503E-04   -0.15080E-04   160   0.207E-02    0.146E-02
DAV:   5    -0.196051663898E+02   -0.91388E-06   -0.18217E-05   200   0.770E-03    0.455E-03
DAV:   6    -0.196051767164E+02   -0.10327E-04   -0.27165E-06   160   0.361E-03    0.250E-03
DAV:   7    -0.196051874903E+02   -0.10774E-04   -0.19023E-06   160   0.293E-03    0.102E-03
DAV:   8    -0.196051975488E+02   -0.10059E-04   -0.13324E-06   160   0.246E-03    0.669E-04
DAV:   9    -0.196052071004E+02   -0.95516E-05   -0.11404E-06   160   0.221E-03    0.434E-04
DAV:  10    -0.196052158972E+02   -0.87968E-05   -0.94735E-07   160   0.194E-03    0.238E-04
DAV:  11    -0.196052252402E+02   -0.93429E-05   -0.74404E-07   160   0.173E-03    0.188E-04
DAV:  12    -0.196052325255E+02   -0.72854E-05   -0.34596E-07   160   0.125E-03    0.102E-04
DAV:  13    -0.196052375298E+02   -0.50042E-05   -0.18031E-07   160   0.809E-04    0.768E-05
DAV:  14    -0.196052365801E+02    0.94966E-06   -0.70823E-08   160   0.533E-04
   6 F= -.19605237E+02 E0= -.19605237E+02  d E =-.304501E-40  mag=     0.0000
 Finite differences progress:
  Degree of freedom:   3/ 12
  Displacement:        1/  2
  Total:               5/ 24
 bond charge predicted
       N       E                     dE             d eps       ncg     rms          rms(c)
DAV:   1    -0.196050597036E+02    0.17783E-03   -0.55932E-01   160   0.143E+00    0.245E-01
DAV:   2    -0.196050192803E+02    0.40423E-04   -0.43506E-03   160   0.127E-01    0.148E-01
DAV:   3    -0.196049115444E+02    0.10774E-03   -0.11277E-03   320   0.560E-02    0.444E-02
DAV:   4    -0.196048854579E+02    0.26086E-04   -0.36887E-04   160   0.253E-02    0.191E-02
DAV:   5    -0.196048892553E+02   -0.37974E-05   -0.31489E-05   240   0.922E-03    0.489E-03
DAV:   6    -0.196049319263E+02   -0.42671E-04   -0.96210E-06   160   0.486E-03    0.205E-03
DAV:   7    -0.196049672873E+02   -0.35361E-04   -0.50976E-06   160   0.303E-03    0.119E-03
DAV:   8    -0.196050108061E+02   -0.43519E-04   -0.65014E-06   160   0.317E-03    0.890E-04
DAV:   9    -0.196050293987E+02   -0.18593E-04   -0.18770E-06   160   0.221E-03    0.516E-04
DAV:  10    -0.196050500966E+02   -0.20698E-04   -0.16327E-06   160   0.216E-03    0.378E-04
DAV:  11    -0.196050704036E+02   -0.20307E-04   -0.13300E-06   240   0.218E-03    0.268E-04
DAV:  12    -0.196050786942E+02   -0.82906E-05   -0.25890E-07   160   0.128E-03    0.156E-04
DAV:  13    -0.196050850904E+02   -0.63961E-05   -0.26265E-07   160   0.994E-04    0.131E-04
DAV:  14    -0.196050839248E+02    0.11655E-05   -0.83066E-08   160   0.597E-04    0.936E-05
DAV:  15    -0.196050830790E+02    0.84576E-06   -0.36917E-08   240   0.416E-04
   7 F= -.19605083E+02 E0= -.19605083E+02  d E =-.894236E-23  mag=     0.0000
 Finite differences progress:
  Degree of freedom:   3/ 12
  Displacement:        2/  2
  Total:               6/ 24
 bond charge predicted
       N       E                     dE             d eps       ncg     rms          rms(c)
DAV:   1    -0.196053935388E+02   -0.30961E-03   -0.28409E-01   160   0.101E+00    0.192E-01
DAV:   2    -0.196051984471E+02    0.19509E-03   -0.31643E-03   160   0.102E-01    0.105E-01
DAV:   3    -0.196051576661E+02    0.40781E-04   -0.56664E-04   240   0.363E-02    0.394E-02
DAV:   4    -0.196051511109E+02    0.65553E-05   -0.23155E-04   160   0.193E-02    0.176E-02
DAV:   5    -0.196051477537E+02    0.33571E-05   -0.33085E-05   160   0.833E-03    0.276E-03
DAV:   6    -0.196051621981E+02   -0.14444E-04   -0.30502E-06   160   0.308E-03    0.157E-03
DAV:   7    -0.196051761196E+02   -0.13921E-04   -0.17776E-06   160   0.186E-03    0.751E-04
DAV:   8    -0.196051973355E+02   -0.21216E-04   -0.32917E-06   160   0.254E-03    0.733E-04
DAV:   9    -0.196052088603E+02   -0.11525E-04   -0.14688E-06   160   0.261E-03    0.461E-04
DAV:  10    -0.196052192978E+02   -0.10438E-04   -0.71409E-07   160   0.186E-03    0.210E-04
DAV:  11    -0.196052370097E+02   -0.17712E-04   -0.68109E-07   160   0.137E-03    0.164E-04
DAV:  12    -0.196052389599E+02   -0.19502E-05   -0.13545E-07   240   0.822E-04    0.931E-05
DAV:  13    -0.196052360615E+02    0.28984E-05   -0.12160E-07   240   0.640E-04    0.510E-05
DAV:  14    -0.196052352661E+02    0.79538E-06   -0.30687E-08   160   0.392E-04
   8 F= -.19605235E+02 E0= -.19605235E+02  d E =-.328223E-41  mag=     0.0000
 Finite differences progress:
  Degree of freedom:   4/ 12
  Displacement:        1/  2
  Total:               7/ 24
 bond charge predicted
       N       E                     dE             d eps       ncg     rms          rms(c)
DAV:   1    -0.196050774948E+02    0.15857E-03   -0.55949E-01   160   0.143E+00    0.246E-01
DAV:   2    -0.196050159480E+02    0.61547E-04   -0.43232E-03   160   0.127E-01    0.147E-01
DAV:   3    -0.196049089044E+02    0.10704E-03   -0.10402E-03   320   0.543E-02    0.440E-02
DAV:   4    -0.196048859258E+02    0.22979E-04   -0.35777E-04   160   0.249E-02    0.191E-02
DAV:   5    -0.196048892848E+02   -0.33590E-05   -0.35489E-05   240   0.928E-03    0.486E-03
DAV:   6    -0.196049320659E+02   -0.42781E-04   -0.96672E-06   160   0.487E-03    0.205E-03
DAV:   7    -0.196049680472E+02   -0.35981E-04   -0.51476E-06   160   0.303E-03    0.117E-03
DAV:   8    -0.196050108882E+02   -0.42841E-04   -0.62020E-06   240   0.309E-03    0.920E-04
DAV:   9    -0.196050292884E+02   -0.18400E-04   -0.16291E-06   160   0.210E-03    0.495E-04
DAV:  10    -0.196050502709E+02   -0.20983E-04   -0.15663E-06   160   0.207E-03    0.391E-04
DAV:  11    -0.196050711643E+02   -0.20893E-04   -0.13614E-06   240   0.217E-03    0.229E-04
DAV:  12    -0.196050787711E+02   -0.76067E-05   -0.29292E-07   160   0.137E-03    0.153E-04
DAV:  13    -0.196050849054E+02   -0.61343E-05   -0.29127E-07   160   0.101E-03    0.108E-04
DAV:  14    -0.196050839105E+02    0.99493E-06   -0.51449E-08   160   0.471E-04
   9 F= -.19605084E+02 E0= -.19605084E+02  d E =-.697952E-22  mag=     0.0000
 Finite differences progress:
  Degree of freedom:   4/ 12
  Displacement:        2/  2
  Total:               8/ 24
 bond charge predicted
       N       E                     dE             d eps       ncg     rms          rms(c)
DAV:   1    -0.196039999272E+02    0.10850E-02   -0.26828E-01   160   0.103E+00    0.147E-01
DAV:   2    -0.196042501402E+02   -0.25021E-03   -0.23639E-03   160   0.103E-01    0.956E-02
DAV:   3    -0.196042042276E+02    0.45913E-04   -0.24928E-04   240   0.324E-02    0.165E-02
DAV:   4    -0.196042049048E+02   -0.67723E-06   -0.25607E-05   320   0.892E-03    0.707E-03
DAV:   5    -0.196042219540E+02   -0.17049E-04   -0.43902E-06   320   0.358E-03    0.324E-03
DAV:   6    -0.196042508109E+02   -0.28857E-04   -0.62735E-06   160   0.385E-03    0.120E-03
DAV:   7    -0.196042931413E+02   -0.42330E-04   -0.12495E-05   160   0.451E-03    0.848E-04
DAV:   8    -0.196043089169E+02   -0.15776E-04   -0.26324E-06   320   0.282E-03    0.520E-04
DAV:   9    -0.196043237612E+02   -0.14844E-04   -0.17059E-06   320   0.244E-03    0.332E-04
DAV:  10    -0.196043412816E+02   -0.17520E-04   -0.19483E-06   320   0.218E-03    0.281E-04
DAV:  11    -0.196043457727E+02   -0.44911E-05   -0.11420E-07   160   0.798E-04    0.210E-04
DAV:  12    -0.196043555848E+02   -0.98121E-05   -0.24512E-07   160   0.835E-04    0.874E-05
DAV:  13    -0.196043548715E+02    0.71330E-06   -0.55224E-08   160   0.443E-04
  10 F= -.19604355E+02 E0= -.19604355E+02  d E =-.126574E-32  mag=    -0.0000
 Finite differences progress:
  Degree of freedom:   5/ 12
  Displacement:        1/  2
  Total:               9/ 24
 bond charge predicted
       N       E                     dE             d eps       ncg     rms          rms(c)
DAV:   1    -0.196042236043E+02    0.13198E-03   -0.56442E-01   160   0.150E+00    0.274E-01
DAV:   2    -0.196040244746E+02    0.19913E-03   -0.82847E-03   160   0.169E-01    0.164E-01
DAV:   3    -0.196037874953E+02    0.23698E-03   -0.90885E-04   160   0.564E-02    0.518E-02
DAV:   4    -0.196037675926E+02    0.19903E-04   -0.19109E-04   160   0.235E-02    0.163E-02
DAV:   5    -0.196037768503E+02   -0.92577E-05   -0.14759E-05   240   0.684E-03    0.684E-03
DAV:   6    -0.196038280002E+02   -0.51150E-04   -0.10826E-05   160   0.542E-03    0.200E-03
DAV:   7    -0.196038688395E+02   -0.40839E-04   -0.43982E-06   160   0.316E-03    0.132E-03
DAV:   8    -0.196039167788E+02   -0.47939E-04   -0.57720E-06   160   0.370E-03    0.863E-04
DAV:   9    -0.196039516559E+02   -0.34877E-04   -0.57336E-06   160   0.435E-03    0.574E-04
DAV:  10    -0.196039747620E+02   -0.23106E-04   -0.35948E-06   160   0.367E-03    0.449E-04
DAV:  11    -0.196039964147E+02   -0.21653E-04   -0.21407E-06   160   0.301E-03    0.252E-04
DAV:  12    -0.196040075933E+02   -0.11179E-04   -0.87409E-07   160   0.207E-03    0.244E-04
DAV:  13    -0.196040160188E+02   -0.84255E-05   -0.25048E-07   160   0.101E-03    0.958E-05
DAV:  14    -0.196040156226E+02    0.39620E-06   -0.17990E-07   160   0.855E-04
  11 F= -.19604016E+02 E0= -.19604016E+02  d E =-.272861E-28  mag=     0.0000
 Finite differences progress:
  Degree of freedom:   5/ 12
  Displacement:        2/  2
  Total:              10/ 24
 bond charge predicted
       N       E                     dE             d eps       ncg     rms          rms(c)
DAV:   1    -0.196012959706E+02    0.27200E-02   -0.26703E-01   160   0.102E+00    0.154E-01
DAV:   2    -0.196014172934E+02   -0.12132E-03   -0.23616E-03   160   0.966E-02    0.925E-02
DAV:   3    -0.196013917209E+02    0.25573E-04   -0.15618E-04   160   0.241E-02    0.266E-02
DAV:   4    -0.196013848961E+02    0.68248E-05   -0.30798E-05   160   0.915E-03    0.537E-03
DAV:   5    -0.196013961592E+02   -0.11263E-04   -0.23985E-06   320   0.273E-03    0.276E-03
DAV:   6    -0.196014250875E+02   -0.28928E-04   -0.68833E-06   160   0.390E-03    0.108E-03
DAV:   7    -0.196014501800E+02   -0.25092E-04   -0.53654E-06   160   0.368E-03    0.815E-04
DAV:   8    -0.196014676192E+02   -0.17439E-04   -0.35263E-06   160   0.381E-03    0.528E-04
DAV:   9    -0.196014848417E+02   -0.17222E-04   -0.31527E-06   320   0.318E-03    0.391E-04
DAV:  10    -0.196014924836E+02   -0.76419E-05   -0.56456E-07   160   0.162E-03    0.277E-04
DAV:  11    -0.196015053687E+02   -0.12885E-04   -0.44058E-07   160   0.118E-03    0.157E-04
DAV:  12    -0.196015139444E+02   -0.85757E-05   -0.23825E-07   240   0.102E-03    0.133E-04
DAV:  13    -0.196015142063E+02   -0.26192E-06   -0.14067E-07   160   0.762E-04
  12 F= -.19601514E+02 E0= -.19601514E+02  d E =-.242055E-44  mag=     0.0000
 Finite differences progress:
  Degree of freedom:   6/ 12
  Displacement:        1/  2
  Total:              11/ 24
 bond charge predicted
       N       E                     dE             d eps       ncg     rms          rms(c)
DAV:   1    -0.196030990739E+02   -0.15851E-02   -0.63889E-01   160   0.141E+00    0.371E-01
DAV:   2    -0.196013686115E+02    0.17305E-02   -0.12012E-02   160   0.183E-01    0.208E-01
DAV:   3    -0.196010351493E+02    0.33346E-03   -0.22529E-03   240   0.758E-02    0.725E-02
DAV:   4    -0.196010089936E+02    0.26156E-04   -0.82312E-04   160   0.390E-02    0.355E-02
DAV:   5    -0.196009932139E+02    0.15780E-04   -0.16710E-04   280   0.180E-02    0.674E-03
DAV:   6    -0.196010124692E+02   -0.19255E-04   -0.69514E-06   160   0.484E-03    0.278E-03
DAV:   7    -0.196010290378E+02   -0.16569E-04   -0.31058E-06   160   0.285E-03    0.111E-03
DAV:   8    -0.196010440768E+02   -0.15039E-04   -0.15989E-06   160   0.228E-03    0.708E-04
DAV:   9    -0.196010593382E+02   -0.15261E-04   -0.19181E-06   160   0.224E-03    0.581E-04
DAV:  10    -0.196010694427E+02   -0.10104E-04   -0.84787E-07   280   0.176E-03    0.313E-04
DAV:  11    -0.196010839018E+02   -0.14459E-04   -0.10941E-06   160   0.199E-03    0.226E-04
DAV:  12    -0.196010917034E+02   -0.78016E-05   -0.41002E-07   240   0.148E-03    0.166E-04
DAV:  13    -0.196010949088E+02   -0.32054E-05   -0.96924E-08   160   0.717E-04    0.871E-05
DAV:  14    -0.196010935145E+02    0.13943E-05   -0.10119E-07   160   0.631E-04    0.726E-05
DAV:  15    -0.196010929772E+02    0.53733E-06   -0.19956E-08   240   0.335E-04
  13 F= -.19601093E+02 E0= -.19601093E+02  d E =-.380171E-19  mag=    -0.0000
 Finite differences progress:
  Degree of freedom:   6/ 12
  Displacement:        2/  2
  Total:              12/ 24
 bond charge predicted
       N       E                     dE             d eps       ncg     rms          rms(c)
DAV:   1    -0.196034243999E+02   -0.23309E-02   -0.33440E-01   160   0.107E+00    0.303E-01
DAV:   2    -0.196016072072E+02    0.18172E-02   -0.94224E-03   240   0.145E-01    0.137E-01
DAV:   3    -0.196014609070E+02    0.14630E-03   -0.95840E-04   160   0.458E-02    0.561E-02
DAV:   4    -0.196014665454E+02   -0.56384E-05   -0.24139E-04   160   0.218E-02    0.201E-02
DAV:   5    -0.196014610507E+02    0.54947E-05   -0.58310E-05   160   0.105E-02    0.395E-03
DAV:   6    -0.196014707154E+02   -0.96647E-05   -0.28259E-06   160   0.326E-03    0.186E-03
DAV:   7    -0.196014788516E+02   -0.81362E-05   -0.91187E-07   160   0.153E-03    0.727E-04
DAV:   8    -0.196014884761E+02   -0.96245E-05   -0.79952E-07   160   0.152E-03    0.398E-04
DAV:   9    -0.196014968384E+02   -0.83623E-05   -0.67922E-07   160   0.162E-03    0.352E-04
DAV:  10    -0.196015041132E+02   -0.72747E-05   -0.43256E-07   160   0.134E-03    0.208E-04
DAV:  11    -0.196015129487E+02   -0.88355E-05   -0.45635E-07   160   0.126E-03    0.135E-04
DAV:  12    -0.196015142140E+02   -0.12653E-05   -0.16890E-07   160   0.877E-04    0.117E-04
DAV:  13    -0.196015124956E+02    0.17184E-05   -0.68221E-08   160   0.509E-04    0.560E-05
DAV:  14    -0.196015118271E+02    0.66849E-06   -0.32920E-08   240   0.400E-04
  14 F= -.19601512E+02 E0= -.19601512E+02  d E =-.172408E-47  mag=    -0.0000
 Finite differences progress:
  Degree of freedom:   7/ 12
  Displacement:        1/  2
  Total:              13/ 24
 bond charge predicted
       N       E                     dE             d eps       ncg     rms          rms(c)
DAV:   1    -0.196031473468E+02   -0.16349E-02   -0.63940E-01   160   0.141E+00    0.373E-01
DAV:   2    -0.196013590735E+02    0.17883E-02   -0.11887E-02   160   0.181E-01    0.207E-01
DAV:   3    -0.196010349666E+02    0.32411E-03   -0.22016E-03   240   0.749E-02    0.726E-02
DAV:   4    -0.196010088388E+02    0.26128E-04   -0.81208E-04   160   0.388E-02    0.352E-02
DAV:   5    -0.196009936632E+02    0.15176E-04   -0.16829E-04   240   0.179E-02    0.669E-03
DAV:   6    -0.196010128604E+02   -0.19197E-04   -0.70440E-06   160   0.485E-03    0.280E-03
DAV:   7    -0.196010299037E+02   -0.17043E-04   -0.30936E-06   160   0.258E-03    0.107E-03
DAV:   8    -0.196010503020E+02   -0.20398E-04   -0.26530E-06   160   0.232E-03    0.688E-04
DAV:   9    -0.196010616423E+02   -0.11340E-04   -0.13408E-06   160   0.219E-03    0.540E-04
DAV:  10    -0.196010715723E+02   -0.99299E-05   -0.90300E-07   160   0.196E-03    0.310E-04
DAV:  11    -0.196010876540E+02   -0.16082E-04   -0.12406E-06   240   0.179E-03    0.255E-04
DAV:  12    -0.196010927503E+02   -0.50964E-05   -0.14294E-07   160   0.940E-04    0.167E-04
DAV:  13    -0.196010944776E+02   -0.17273E-05   -0.14322E-07   160   0.752E-04    0.119E-04
DAV:  14    -0.196010933421E+02    0.11355E-05   -0.46889E-08   240   0.449E-04    0.712E-05
DAV:  15    -0.196010928082E+02    0.53393E-06   -0.14908E-08   160   0.291E-04
  15 F= -.19601093E+02 E0= -.19601093E+02  d E =-.282434E-19  mag=    -0.0000
 Finite differences progress:
  Degree of freedom:   7/ 12
  Displacement:        2/  2
  Total:              14/ 24
 bond charge predicted
       N       E                     dE             d eps       ncg     rms          rms(c)
DAV:   1    -0.196063139027E+02   -0.52206E-02   -0.31765E-01   160   0.102E+00    0.276E-01
DAV:   2    -0.196054007824E+02    0.91312E-03   -0.76564E-03   160   0.144E-01    0.148E-01
DAV:   3    -0.196051854131E+02    0.21537E-03   -0.79109E-04   160   0.479E-02    0.551E-02
DAV:   4    -0.196051684674E+02    0.16946E-04   -0.20529E-04   160   0.223E-02    0.170E-02
DAV:   5    -0.196051664205E+02    0.20469E-05   -0.34925E-05   240   0.857E-03    0.488E-03
DAV:   6    -0.196051794885E+02   -0.13068E-04   -0.29105E-06   160   0.295E-03    0.177E-03
DAV:   7    -0.196051924850E+02   -0.12996E-04   -0.21760E-06   160   0.205E-03    0.866E-04
DAV:   8    -0.196052048850E+02   -0.12400E-04   -0.14183E-06   160   0.180E-03    0.406E-04
DAV:   9    -0.196052141301E+02   -0.92451E-05   -0.12355E-06   160   0.219E-03    0.277E-04
DAV:  10    -0.196052215606E+02   -0.74304E-05   -0.71810E-07   160   0.194E-03    0.202E-04
DAV:  11    -0.196052337594E+02   -0.12199E-04   -0.81322E-07   160   0.136E-03    0.132E-04
DAV:  12    -0.196052370170E+02   -0.32576E-05   -0.13033E-07   160   0.828E-04    0.101E-04
DAV:  13    -0.196052361783E+02    0.83877E-06   -0.14019E-07   160   0.715E-04
  16 F= -.19605236E+02 E0= -.19605236E+02  d E =-.139757E-40  mag=    -0.0000
 Finite differences progress:
  Degree of freedom:   8/ 12
  Displacement:        1/  2
  Total:              15/ 24
 bond charge predicted
       N       E                     dE             d eps       ncg     rms          rms(c)
DAV:   1    -0.196050629345E+02    0.17408E-03   -0.55935E-01   160   0.143E+00    0.245E-01
DAV:   2    -0.196050193412E+02    0.43593E-04   -0.42997E-03   160   0.127E-01    0.148E-01
DAV:   3    -0.196049117302E+02    0.10761E-03   -0.11401E-03   320   0.562E-02    0.445E-02
DAV:   4    -0.196048853672E+02    0.26363E-04   -0.37522E-04   160   0.255E-02    0.192E-02
DAV:   5    -0.196048891449E+02   -0.37777E-05   -0.32092E-05   240   0.931E-03    0.490E-03
DAV:   6    -0.196049316790E+02   -0.42534E-04   -0.96295E-06   160   0.489E-03    0.204E-03
DAV:   7    -0.196049676633E+02   -0.35984E-04   -0.53216E-06   160   0.321E-03    0.118E-03
DAV:   8    -0.196050135093E+02   -0.45846E-04   -0.79159E-06   240   0.388E-03    0.912E-04
DAV:   9    -0.196050301669E+02   -0.16658E-04   -0.22285E-06   160   0.331E-03    0.488E-04
DAV:  10    -0.196050500700E+02   -0.19903E-04   -0.20695E-06   160   0.297E-03    0.416E-04
DAV:  11    -0.196050714600E+02   -0.21390E-04   -0.14741E-06   240   0.214E-03    0.221E-04
DAV:  12    -0.196050794716E+02   -0.80115E-05   -0.21663E-07   160   0.110E-03    0.148E-04
DAV:  13    -0.196050849360E+02   -0.54645E-05   -0.28228E-07   160   0.102E-03    0.108E-04
DAV:  14    -0.196050838838E+02    0.10522E-05   -0.69938E-08   160   0.621E-04    0.675E-05
DAV:  15    -0.196050829438E+02    0.94002E-06   -0.48750E-08   240   0.522E-04
  17 F= -.19605083E+02 E0= -.19605083E+02  d E =-.654443E-23  mag=     0.0000
 Finite differences progress:
  Degree of freedom:   8/ 12
  Displacement:        2/  2
  Total:              16/ 24
 bond charge predicted
       N       E                     dE             d eps       ncg     rms          rms(c)
DAV:   1    -0.196039964822E+02    0.10874E-02   -0.26824E-01   160   0.103E+00    0.147E-01
DAV:   2    -0.196042494775E+02   -0.25300E-03   -0.24067E-03   160   0.103E-01    0.956E-02
DAV:   3    -0.196042039665E+02    0.45511E-04   -0.24099E-04   240   0.322E-02    0.163E-02
DAV:   4    -0.196042050669E+02   -0.11004E-05   -0.24761E-05   320   0.885E-03    0.696E-03
DAV:   5    -0.196042222429E+02   -0.17176E-04   -0.41388E-06   160   0.355E-03    0.333E-03
DAV:   6    -0.196042520097E+02   -0.29767E-04   -0.72662E-06   320   0.408E-03    0.131E-03
DAV:   7    -0.196042945463E+02   -0.42537E-04   -0.11061E-05   160   0.425E-03    0.812E-04
DAV:   8    -0.196043091803E+02   -0.14634E-04   -0.27803E-06   320   0.292E-03    0.497E-04
DAV:   9    -0.196043205492E+02   -0.11369E-04   -0.12006E-06   320   0.235E-03    0.387E-04
DAV:  10    -0.196043412078E+02   -0.20659E-04   -0.24880E-06   320   0.234E-03    0.229E-04
DAV:  11    -0.196043471277E+02   -0.59199E-05   -0.19999E-07   160   0.110E-03    0.140E-04
DAV:  12    -0.196043555822E+02   -0.84545E-05   -0.24406E-07   160   0.897E-04    0.178E-04
DAV:  13    -0.196043548085E+02    0.77374E-06   -0.66885E-08   160   0.519E-04
  18 F= -.19604355E+02 E0= -.19604355E+02  d E =-.962923E-33  mag=    -0.0000
 Finite differences progress:
  Degree of freedom:   9/ 12
  Displacement:        1/  2
  Total:              17/ 24
 bond charge predicted
       N       E                     dE             d eps       ncg     rms          rms(c)
DAV:   1    -0.196042232124E+02    0.13237E-03   -0.56440E-01   160   0.150E+00    0.274E-01
DAV:   2    -0.196040240457E+02    0.19917E-03   -0.83032E-03   160   0.170E-01    0.164E-01
DAV:   3    -0.196037872082E+02    0.23684E-03   -0.90348E-04   160   0.563E-02    0.519E-02
DAV:   4    -0.196037670987E+02    0.20110E-04   -0.18964E-04   160   0.235E-02    0.163E-02
DAV:   5    -0.196037765747E+02   -0.94759E-05   -0.14581E-05   240   0.686E-03    0.683E-03
DAV:   6    -0.196038276164E+02   -0.51042E-04   -0.10848E-05   160   0.546E-03    0.199E-03
DAV:   7    -0.196038686683E+02   -0.41052E-04   -0.45619E-06   160   0.334E-03    0.132E-03
DAV:   8    -0.196039168331E+02   -0.48165E-04   -0.61895E-06   160   0.403E-03    0.851E-04
DAV:   9    -0.196039517700E+02   -0.34937E-04   -0.66226E-06   160   0.501E-03    0.575E-04
DAV:  10    -0.196039746554E+02   -0.22885E-04   -0.39868E-06   160   0.414E-03    0.448E-04
DAV:  11    -0.196039954542E+02   -0.20799E-04   -0.19979E-06   160   0.285E-03    0.252E-04
DAV:  12    -0.196040075953E+02   -0.12141E-04   -0.83312E-07   160   0.188E-03    0.242E-04
DAV:  13    -0.196040154773E+02   -0.78820E-05   -0.21977E-07   160   0.992E-04    0.988E-05
DAV:  14    -0.196040155852E+02   -0.10784E-06   -0.19798E-07   160   0.888E-04
  19 F= -.19604016E+02 E0= -.19604016E+02  d E =-.217948E-28  mag=    -0.0000
 Finite differences progress:
  Degree of freedom:   9/ 12
  Displacement:        2/  2
  Total:              18/ 24
 bond charge predicted
       N       E                     dE             d eps       ncg     rms          rms(c)
DAV:   1    -0.195974106712E+02    0.66048E-02   -0.20449E+00   160   0.282E+00    0.329E-01
DAV:   2    -0.195977559333E+02   -0.34526E-03   -0.30753E-02   240   0.333E-01    0.199E-01
DAV:   3    -0.195969874043E+02    0.76853E-03   -0.21098E-03   320   0.875E-02    0.715E-02
DAV:   4    -0.195969509405E+02    0.36464E-04   -0.34475E-04   160   0.386E-02    0.197E-02
DAV:   5    -0.195969701141E+02   -0.19174E-04   -0.35250E-05   160   0.118E-02    0.783E-03
DAV:   6    -0.195969930651E+02   -0.22951E-04   -0.69871E-06   160   0.521E-03    0.306E-03
DAV:   7    -0.195970129831E+02   -0.19918E-04   -0.42356E-06   160   0.465E-03    0.113E-03
DAV:   8    -0.195970332939E+02   -0.20311E-04   -0.37098E-06   160   0.451E-03    0.100E-03
DAV:   9    -0.195970455370E+02   -0.12243E-04   -0.20161E-06   160   0.357E-03    0.666E-04
DAV:  10    -0.195970636626E+02   -0.18126E-04   -0.32447E-06   240   0.342E-03    0.641E-04
DAV:  11    -0.195970740102E+02   -0.10348E-04   -0.11555E-06   160   0.241E-03    0.224E-04
DAV:  12    -0.195970805126E+02   -0.65025E-05   -0.33755E-07   240   0.142E-03    0.249E-04
DAV:  13    -0.195970853838E+02   -0.48712E-05   -0.11977E-07   160   0.785E-04    0.116E-04
DAV:  14    -0.195970856001E+02   -0.21634E-06   -0.96266E-08   160   0.637E-04
  20 F= -.19597086E+02 E0= -.19597086E+02  d E =-.507073E-14  mag=     0.0000
 Finite differences progress:
  Degree of freedom:  10/ 12
  Displacement:        1/  2
  Total:              19/ 24
 bond charge predicted
       N       E                     dE             d eps       ncg     rms          rms(c)
DAV:   1    -0.195990052829E+02   -0.19199E-02   -0.68049E+00   160   0.517E+00    0.510E-01
DAV:   2    -0.195998804231E+02   -0.87514E-03   -0.74105E-02   240   0.480E-01    0.295E-01
DAV:   3    -0.195979810938E+02    0.18993E-02   -0.42137E-03   240   0.123E-01    0.119E-01
DAV:   4    -0.195977152341E+02    0.26586E-03   -0.16190E-03   240   0.801E-02    0.263E-02
DAV:   5    -0.195978027733E+02   -0.87539E-04   -0.21652E-04   160   0.288E-02    0.102E-02
DAV:   6    -0.195978567755E+02   -0.54002E-04   -0.19631E-05   160   0.846E-03    0.383E-03
DAV:   7    -0.195979181464E+02   -0.61371E-04   -0.64571E-06   160   0.468E-03    0.185E-03
DAV:   8    -0.195980061635E+02   -0.88017E-04   -0.12264E-05   160   0.559E-03    0.151E-03
DAV:   9    -0.195980763208E+02   -0.70157E-04   -0.10855E-05   320   0.557E-03    0.142E-03
DAV:  10    -0.195981314959E+02   -0.55175E-04   -0.71362E-06   160   0.419E-03    0.491E-04
DAV:  11    -0.195981501371E+02   -0.18641E-04   -0.15029E-06   240   0.320E-03    0.573E-04
DAV:  12    -0.195981705793E+02   -0.20442E-04   -0.65655E-07   160   0.196E-03    0.296E-04
DAV:  13    -0.195981851960E+02   -0.14617E-04   -0.32831E-07   160   0.129E-03    0.163E-04
DAV:  14    -0.195981886024E+02   -0.34064E-05   -0.14908E-07   320   0.835E-04    0.130E-04
DAV:  15    -0.195981868412E+02    0.17613E-05   -0.69152E-08   160   0.596E-04    0.620E-05
DAV:  16    -0.195981841730E+02    0.26682E-05   -0.88015E-08   160   0.632E-04    0.528E-05
DAV:  17    -0.195981840327E+02    0.14028E-06   -0.15024E-08   320   0.317E-04
  21 F= -.19598184E+02 E0= -.19598184E+02  d E =-.828688E-57  mag=     0.0000
 Finite differences progress:
  Degree of freedom:  10/ 12
  Displacement:        2/  2
  Total:              20/ 24
 bond charge predicted
       N       E                     dE             d eps       ncg     rms          rms(c)
DAV:   1    -0.195976304558E+02    0.55372E-03   -0.34716E+00   160   0.364E+00    0.362E-01
DAV:   2    -0.195979101157E+02   -0.27966E-03   -0.32316E-02   240   0.340E-01    0.200E-01
DAV:   3    -0.195969734203E+02    0.93670E-03   -0.30691E-03   160   0.997E-02    0.643E-02
DAV:   4    -0.195968827067E+02    0.90714E-04   -0.44093E-04   240   0.383E-02    0.237E-02
DAV:   5    -0.195968656939E+02    0.17013E-04   -0.27287E-05   160   0.106E-02    0.754E-03
DAV:   6    -0.195968976201E+02   -0.31926E-04   -0.79730E-06   160   0.469E-03    0.321E-03
DAV:   7    -0.195969342600E+02   -0.36640E-04   -0.52630E-06   160   0.328E-03    0.153E-03
DAV:   8    -0.195969976687E+02   -0.63409E-04   -0.13449E-05   160   0.437E-03    0.153E-03
DAV:   9    -0.195970236142E+02   -0.25946E-04   -0.39089E-06   160   0.366E-03    0.849E-04
DAV:  10    -0.195970531280E+02   -0.29514E-04   -0.50888E-06   160   0.342E-03    0.678E-04
DAV:  11    -0.195970669908E+02   -0.13863E-04   -0.15441E-06   320   0.276E-03    0.360E-04
DAV:  12    -0.195970750444E+02   -0.80537E-05   -0.54475E-07   160   0.186E-03    0.263E-04
DAV:  13    -0.195970832629E+02   -0.82185E-05   -0.32036E-07   160   0.119E-03    0.137E-04
DAV:  14    -0.195970853602E+02   -0.20972E-05   -0.13373E-07   160   0.744E-04    0.858E-05
DAV:  15    -0.195970853357E+02    0.24443E-07   -0.48519E-08   160   0.499E-04
  22 F= -.19597085E+02 E0= -.19597085E+02  d E =-.249330E-13  mag=    -0.0000
 Finite differences progress:
  Degree of freedom:  11/ 12
  Displacement:        1/  2
  Total:              21/ 24
 bond charge predicted
       N       E                     dE             d eps       ncg     rms          rms(c)
DAV:   1    -0.195987489307E+02   -0.16636E-02   -0.68023E+00   160   0.517E+00    0.511E-01
DAV:   2    -0.195999392048E+02   -0.11903E-02   -0.76782E-02   240   0.482E-01    0.297E-01
DAV:   3    -0.195980181134E+02    0.19211E-02   -0.40812E-03   240   0.121E-01    0.124E-01
DAV:   4    -0.195977108219E+02    0.30729E-03   -0.17685E-03   240   0.837E-02    0.267E-02
DAV:   5    -0.195977990697E+02   -0.88248E-04   -0.24800E-04   160   0.307E-02    0.109E-02
DAV:   6    -0.195978520621E+02   -0.52992E-04   -0.20857E-05   160   0.852E-03    0.460E-03
DAV:   7    -0.195979170998E+02   -0.65038E-04   -0.77297E-06   160   0.461E-03    0.177E-03
DAV:   8    -0.195980026412E+02   -0.85541E-04   -0.10685E-05   160   0.447E-03    0.165E-03
DAV:   9    -0.195980769190E+02   -0.74278E-04   -0.10542E-05   320   0.464E-03    0.125E-03
DAV:  10    -0.195981283716E+02   -0.51453E-04   -0.66039E-06   160   0.373E-03    0.495E-04
DAV:  11    -0.195981496587E+02   -0.21287E-04   -0.12377E-06   240   0.280E-03    0.582E-04
DAV:  12    -0.195981738894E+02   -0.24231E-04   -0.77785E-07   160   0.197E-03    0.276E-04
DAV:  13    -0.195981850511E+02   -0.11162E-04   -0.23694E-07   160   0.115E-03    0.162E-04
DAV:  14    -0.195981886093E+02   -0.35582E-05   -0.17190E-07   160   0.899E-04    0.132E-04
DAV:  15    -0.195981859384E+02    0.26709E-05   -0.10245E-07   160   0.728E-04    0.843E-05
DAV:  16    -0.195981841869E+02    0.17515E-05   -0.59861E-08   240   0.563E-04    0.483E-05
DAV:  17    -0.195981840060E+02    0.18094E-06   -0.13946E-08   160   0.313E-04
  23 F= -.19598184E+02 E0= -.19598184E+02  d E =-.351901E-57  mag=    -0.0000
 Finite differences progress:
  Degree of freedom:  11/ 12
  Displacement:        2/  2
  Total:              22/ 24
 bond charge predicted
       N       E                     dE             d eps       ncg     rms          rms(c)
DAV:   1    -0.195975697416E+02    0.61445E-03   -0.34710E+00   160   0.364E+00    0.363E-01
DAV:   2    -0.195978867689E+02   -0.31703E-03   -0.32566E-02   160   0.341E-01    0.201E-01
DAV:   3    -0.195970067698E+02    0.88000E-03   -0.37343E-03   240   0.109E-01    0.697E-02
DAV:   4    -0.195969039233E+02    0.10285E-03   -0.54971E-04   160   0.392E-02    0.278E-02
DAV:   5    -0.195968672460E+02    0.36677E-04   -0.55283E-05   240   0.146E-02    0.946E-03
DAV:   6    -0.195968971532E+02   -0.29907E-04   -0.12622E-05   160   0.695E-03    0.398E-03
DAV:   7    -0.195969274693E+02   -0.30316E-04   -0.49458E-06   160   0.317E-03    0.159E-03
DAV:   8    -0.195969824177E+02   -0.54948E-04   -0.91798E-06   160   0.324E-03    0.195E-03
DAV:   9    -0.195970127777E+02   -0.30360E-04   -0.38233E-06   160   0.206E-03    0.123E-03
DAV:  10    -0.195970487127E+02   -0.35935E-04   -0.65777E-06   160   0.258E-03    0.875E-04
DAV:  11    -0.195970636765E+02   -0.14964E-04   -0.13780E-06   160   0.176E-03    0.525E-04
DAV:  12    -0.195970741118E+02   -0.10435E-04   -0.65788E-07   240   0.164E-03    0.305E-04
DAV:  13    -0.195970819692E+02   -0.78574E-05   -0.31703E-07   160   0.126E-03    0.222E-04
DAV:  14    -0.195970853952E+02   -0.34260E-05   -0.16985E-07   160   0.868E-04    0.103E-04
DAV:  15    -0.195970853725E+02    0.22745E-07   -0.74113E-08   160   0.592E-04
  24 F= -.19597085E+02 E0= -.19597085E+02  d E =-.319095E-13  mag=    -0.0000
 Finite differences progress:
  Degree of freedom:  12/ 12
  Displacement:        1/  2
  Total:              23/ 24
 bond charge predicted
       N       E                     dE             d eps       ncg     rms          rms(c)
DAV:   1    -0.195988176970E+02   -0.17323E-02   -0.68030E+00   160   0.517E+00    0.511E-01
DAV:   2    -0.195999225113E+02   -0.11048E-02   -0.75943E-02   240   0.480E-01    0.297E-01
DAV:   3    -0.195980048077E+02    0.19177E-02   -0.41082E-03   240   0.122E-01    0.122E-01
DAV:   4    -0.195977113719E+02    0.29344E-03   -0.17279E-03   240   0.827E-02    0.266E-02
DAV:   5    -0.195977992234E+02   -0.87852E-04   -0.23735E-04   160   0.301E-02    0.108E-02
DAV:   6    -0.195978523588E+02   -0.53135E-04   -0.19891E-05   160   0.836E-03    0.440E-03
DAV:   7    -0.195979142190E+02   -0.61860E-04   -0.65770E-06   160   0.419E-03    0.198E-03
DAV:   8    -0.195979838664E+02   -0.69647E-04   -0.66227E-06   160   0.340E-03    0.147E-03
DAV:   9    -0.195980734386E+02   -0.89572E-04   -0.13707E-05   320   0.411E-03    0.132E-03
DAV:  10    -0.195981261304E+02   -0.52692E-04   -0.62651E-06   160   0.321E-03    0.488E-04
DAV:  11    -0.195981477273E+02   -0.21597E-04   -0.12143E-06   240   0.242E-03    0.586E-04
DAV:  12    -0.195981712420E+02   -0.23515E-04   -0.69722E-07   160   0.179E-03    0.286E-04
DAV:  13    -0.195981842228E+02   -0.12981E-04   -0.27318E-07   160   0.127E-03    0.168E-04
DAV:  14    -0.195981886894E+02   -0.44666E-05   -0.15797E-07   160   0.837E-04    0.138E-04
DAV:  15    -0.195981863597E+02    0.23297E-05   -0.79271E-08   160   0.571E-04    0.819E-05
DAV:  16    -0.195981841926E+02    0.21671E-05   -0.60021E-08   160   0.522E-04    0.449E-05
DAV:  17    -0.195981840164E+02    0.17616E-06   -0.14832E-08   320   0.293E-04
  25 F= -.19598184E+02 E0= -.19598184E+02  d E =-.573062E-57  mag=    -0.0000
 Finite differences progress:
  Degree of freedom:  12/ 12
  Displacement:        2/  2
  Total:              24/ 24
 Finite differences POTIM=  2.000000000000000E-002
 writing wavefunctions
