 running on   20 total cores
 distrk:  each k-point on   20 cores,    1 groups
 distr:  one band on    1 cores,   20 groups
 using from now: INCAR     
 vasp.5.4.1 05Feb16 (build Sep 02 2018 21:45:25) complex                        
  
 POSCAR found type information on POSCAR  Cu
 POSCAR found :  1 types and       4 ions
 scaLAPACK will be used

 ----------------------------------------------------------------------------- 
|                                                                             |
|           W    W    AA    RRRRR   N    N  II  N    N   GGGG   !!!           |
|           W    W   A  A   R    R  NN   N  II  NN   N  G    G  !!!           |
|           W    W  A    A  R    R  N N  N  II  N N  N  G       !!!           |
|           W WW W  AAAAAA  RRRRR   N  N N  II  N  N N  G  GGG   !            |
|           WW  WW  A    A  R   R   N   NN  II  N   NN  G    G                |
|           W    W  A    A  R    R  N    N  II  N    N   GGGG   !!!           |
|                                                                             |
|      For optimal performance we recommend to set                            |
|        NCORE= 4 - approx SQRT( number of cores)                             |
|      NCORE specifies how many cores store one orbital (NPAR=cpu/NCORE).     |
|      This setting can  greatly improve the performance of VASP for DFT.     |
|      The default, NPAR=number of cores might be grossly inefficient         |
|      on modern multi-core architectures or massively parallel machines.     |
|      Do your own testing !!!!                                               |
|      Unfortunately you need to use the default for GW and RPA calculations. |
|      (for HF NCORE is supported but not extensively tested yet)             |
|                                                                             |
 ----------------------------------------------------------------------------- 


 ----------------------------------------------------------------------------- 
|                                                                             |
|  ADVICE TO THIS USER RUNNING 'VASP/VAMP'   (HEAR YOUR MASTER'S VOICE ...):  |
|                                                                             |
|      You have a (more or less) 'small supercell' and for smaller cells      |
|      it is recommended  to use the reciprocal-space projection scheme!      |
|      The real space optimization is not  efficient for small cells and it   |
|      is also less accurate ...                                              |
|      Therefore set LREAL=.FALSE. in the  INCAR file                         |
|                                                                             |
 ----------------------------------------------------------------------------- 

 LDA part: xc-table for Ceperly-Alder, standard interpolation
 POSCAR, INCAR and KPOINTS ok, starting setup
 WARNING: small aliasing (wrap around) errors must be expected
 FFT: planning ...
 WAVECAR not read
 entering main loop
       N       E                     dE             d eps       ncg     rms          rms(c)
DAV:   1     0.203830988344E+03    0.20383E+03   -0.20764E+04 87840   0.131E+03
DAV:   2    -0.867426830677E+01   -0.21251E+03   -0.19734E+03 96240   0.222E+02
DAV:   3    -0.169854815847E+02   -0.83112E+01   -0.82632E+01115000   0.568E+01
DAV:   4    -0.170324285781E+02   -0.46947E-01   -0.46945E-01101800   0.491E+00
DAV:   5    -0.170325749803E+02   -0.14640E-03   -0.14640E-03115020   0.218E-01    0.133E+01
DAV:   6    -0.155633183917E+02    0.14693E+01   -0.20877E+01109520   0.616E+01    0.693E+00
DAV:   7    -0.140263305807E+02    0.15370E+01   -0.48142E+00117080   0.266E+01    0.879E-01
DAV:   8    -0.140037415724E+02    0.22589E-01   -0.18074E-01129580   0.483E+00    0.108E+00
DAV:   9    -0.139913409167E+02    0.12401E-01   -0.84410E-02129100   0.588E+00    0.811E-01
DAV:  10    -0.139822046219E+02    0.91363E-02   -0.37713E-02125740   0.346E+00    0.248E-01
DAV:  11    -0.139794127595E+02    0.27919E-02   -0.18061E-02118860   0.318E+00    0.194E-01
DAV:  12    -0.139780952055E+02    0.13176E-02   -0.36940E-03111200   0.181E+00    0.110E-01
DAV:  13    -0.139769131894E+02    0.11820E-02   -0.97197E-04112000   0.329E-01    0.393E-02
DAV:  14    -0.139762914720E+02    0.62172E-03   -0.26982E-04113320   0.320E-01    0.282E-02
DAV:  15    -0.139760688470E+02    0.22263E-03   -0.23246E-04100000   0.280E-01    0.179E-02
DAV:  16    -0.139765421897E+02   -0.47334E-03   -0.52473E-04 95800   0.413E-01    0.228E-02
DAV:  17    -0.139767920332E+02   -0.24984E-03   -0.28999E-05101720   0.368E-02    0.207E-02
DAV:  18    -0.139777072969E+02   -0.91526E-03   -0.58210E-03 85180   0.130E+00    0.621E-02
DAV:  19    -0.139774320427E+02    0.27525E-03   -0.54632E-04 90340   0.376E-01    0.389E-02
DAV:  20    -0.139774477133E+02   -0.15671E-04   -0.36148E-05 93600   0.732E-02    0.349E-02
DAV:  21    -0.139774090970E+02    0.38616E-04   -0.61731E-05 89900   0.138E-01    0.258E-02
DAV:  22    -0.139773583548E+02    0.50742E-04   -0.13336E-04 95700   0.196E-01    0.137E-02
DAV:  23    -0.139773531594E+02    0.51954E-05   -0.10585E-05 75580   0.477E-02
   1 F= -.13977353E+02 E0= -.13977018E+02  d E =-.139774E+02
 curvature:   0.00 expect dE= 0.000E+00 dE for cont linesearch  0.000E+00
 trial: gam= 0.00000 g(F)=  0.146E-03 g(S)=  0.000E+00 ort = 0.000E+00 (trialstep = 0.100E+01)
 search vector abs. value=  0.146E-03
 bond charge predicted
       N       E                     dE             d eps       ncg     rms          rms(c)
DAV:   1    -0.139774889541E+02   -0.13060E-03   -0.72801E-03105740   0.390E-01    0.869E-03
DAV:   2    -0.139775051146E+02   -0.16160E-04   -0.21917E-04 96660   0.308E-01    0.186E-02
DAV:   3    -0.139774882143E+02    0.16900E-04   -0.18231E-04 95340   0.288E-01    0.538E-03
DAV:   4    -0.139774888072E+02   -0.59291E-06   -0.16100E-05 90760   0.662E-02
   2 F= -.13977489E+02 E0= -.13977164E+02  d E =-.135648E-03
 ZBRENT: can't locate minimum, use default step
 trial-energy change:   -0.000136  1 .order   -0.000146   -0.000146   -0.000146
 step:   4.0000(harm=  4.0000)  dis= 0.00000  next Energy=   -13.977940 (dE=-0.587E-03)
 bond charge predicted
       N       E                     dE             d eps       ncg     rms          rms(c)
DAV:   1    -0.139779177126E+02   -0.42950E-03   -0.65342E-02 87840   0.112E+00    0.213E-02
DAV:   2    -0.139779277599E+02   -0.10047E-04   -0.18328E-04130820   0.267E-01    0.245E-02
DAV:   3    -0.139779171069E+02    0.10653E-04   -0.61925E-05 97780   0.241E-01    0.122E-02
DAV:   4    -0.139779192625E+02   -0.21557E-05   -0.78921E-05 93320   0.188E-01
   3 F= -.13977919E+02 E0= -.13977621E+02  d E =-.566103E-03
 curvature:  -3.00 expect dE=-0.405E-03 dE for cont linesearch -0.403E-03
 ZBRENT: increasing intervall
 opt :  10.0000  next Energy=   -13.978722 (dE=-0.137E-02)
 bond charge predicted
       N       E                     dE             d eps       ncg     rms          rms(c)
DAV:   1    -0.139787141604E+02   -0.79705E-03   -0.26164E-01 87840   0.225E+00    0.425E-02
DAV:   2    -0.139787690376E+02   -0.54877E-04   -0.98299E-04140040   0.667E-01    0.498E-02
DAV:   3    -0.139787262383E+02    0.42799E-04   -0.85229E-04134620   0.673E-01    0.265E-02
DAV:   4    -0.139787191152E+02    0.71231E-05   -0.47860E-04 93820   0.459E-01    0.250E-02
DAV:   5    -0.139786992310E+02    0.19884E-04   -0.12852E-04117540   0.270E-01    0.735E-03
DAV:   6    -0.139786991564E+02    0.74579E-07   -0.79158E-06 88060   0.743E-02
   4 F= -.13978699E+02 E0= -.13978455E+02  d E =-.134600E-02
 curvature:  -5.98 expect dE=-0.670E-03 dE for cont linesearch -0.627E-03
 ZBRENT: increasing intervall
 opt :  22.0000  next Energy=   -13.979990 (dE=-0.264E-02)
 bond charge predicted
       N       E                     dE             d eps       ncg     rms          rms(c)
DAV:   1    -0.139799408677E+02   -0.12416E-02   -0.10473E+00 87840   0.450E+00    0.759E-02
DAV:   2    -0.139800734720E+02   -0.13260E-03   -0.26541E-03136620   0.103E+00    0.789E-02
DAV:   3    -0.139800054736E+02    0.67998E-04   -0.15580E-03129780   0.979E-01    0.462E-02
DAV:   4    -0.139800132534E+02   -0.77798E-05   -0.17549E-03136860   0.840E-01    0.456E-02
DAV:   5    -0.139799263005E+02    0.86953E-04   -0.56888E-04139860   0.554E-01    0.119E-02
DAV:   6    -0.139799257552E+02    0.54536E-06   -0.26623E-05117240   0.988E-02
   5 F= -.13979926E+02 E0= -.13979793E+02  d E =-.257260E-02
 curvature: -12.30 expect dE=-0.110E-02 dE for cont linesearch -0.621E-03
 ZBRENT: increasing intervall
 opt :  46.0000  next Energy=   -13.981078 (dE=-0.372E-02)
 bond charge predicted
       N       E                     dE             d eps       ncg     rms          rms(c)
DAV:   1    -0.139808088163E+02   -0.88252E-03   -0.42054E+00 87840   0.903E+00    0.149E-01
DAV:   2    -0.139814198112E+02   -0.61099E-03   -0.10620E-02134760   0.187E+00    0.146E-01
DAV:   3    -0.139812802078E+02    0.13960E-03   -0.68884E-03118080   0.191E+00    0.958E-02
DAV:   4    -0.139811201616E+02    0.16005E-03   -0.56724E-03156340   0.147E+00    0.757E-02
DAV:   5    -0.139809164489E+02    0.20371E-03   -0.11363E-03137520   0.843E-01    0.234E-02
DAV:   6    -0.139809070028E+02    0.94461E-05   -0.69768E-05126540   0.163E-01
   6 F= -.13980907E+02 E0= -.13980896E+02  d E =-.355384E-02
 curvature: -22.81 expect dE=-0.501E-02 dE for cont linesearch -0.399E-04
 trial: gam= 1.61150 g(F)=  0.220E-03 g(S)=  0.000E+00 ort =-0.160E-04 (trialstep = 0.267E+01)
 search vector abs. value=  0.548E-03
 bond charge predicted
       N       E                     dE             d eps       ncg     rms          rms(c)
DAV:   1    -0.139813763788E+02   -0.45993E-03   -0.19086E-01 87840   0.197E+00    0.277E-02
DAV:   2    -0.139814096258E+02   -0.33247E-04   -0.51987E-04116820   0.403E-01    0.305E-02
DAV:   3    -0.139813968885E+02    0.12737E-04   -0.30342E-04115320   0.373E-01    0.182E-02
DAV:   4    -0.139813918540E+02    0.50345E-05   -0.13515E-04 95480   0.252E-01    0.151E-02
DAV:   5    -0.139813858954E+02    0.59586E-05   -0.43045E-05 99560   0.156E-01
   7 F= -.13981386E+02 E0= -.13981378E+02  d E =-.478893E-03
 ZBRENT: can't locate minimum, use default step
 trial-energy change:   -0.000479  1 .order   -0.000482   -0.000517   -0.000446
 step:  10.6770(harm= 19.3698)  dis= 0.00001  next Energy=   -13.982784 (dE=-0.188E-02)
 bond charge predicted
       N       E                     dE             d eps       ncg     rms          rms(c)
DAV:   1    -0.139823793964E+02   -0.98754E-03   -0.17194E+00 87840   0.592E+00    0.854E-02
DAV:   2    -0.139826507059E+02   -0.27131E-03   -0.47870E-03116840   0.122E+00    0.922E-02
DAV:   3    -0.139825362921E+02    0.11441E-03   -0.29966E-03134320   0.116E+00    0.560E-02
DAV:   4    -0.139824683821E+02    0.67910E-04   -0.12854E-03153060   0.722E-01    0.426E-02
DAV:   5    -0.139824102333E+02    0.58149E-04   -0.28919E-04137820   0.452E-01    0.134E-02
DAV:   6    -0.139824071300E+02    0.31032E-05   -0.24919E-05102620   0.101E-01
   8 F= -.13982407E+02 E0= -.13982405E+02  d E =-.150013E-02
 curvature: -19.95 expect dE=-0.114E-02 dE for cont linesearch -0.191E-03
 ZBRENT: increasing intervall
 opt :  26.6924  next Energy=   -13.982053 (dE=-0.115E-02)
 bond charge predicted
       N       E                     dE             d eps       ncg     rms          rms(c)
DAV:   1    -0.139822346574E+02    0.17558E-03   -0.69009E+00 87840   0.119E+01    0.175E-01
DAV:   2    -0.139833470727E+02   -0.11124E-02   -0.20116E-02119960   0.246E+00    0.185E-01
DAV:   3    -0.139828962269E+02    0.45085E-03   -0.12599E-02133720   0.236E+00    0.114E-01
DAV:   4    -0.139825607495E+02    0.33548E-03   -0.51864E-03158180   0.139E+00    0.807E-02
DAV:   5    -0.139823491099E+02    0.21164E-03   -0.10895E-03135780   0.888E-01    0.301E-02
DAV:   6    -0.139823349691E+02    0.14141E-04   -0.13872E-04143220   0.258E-01    0.138E-02
DAV:   7    -0.139823301829E+02    0.47862E-05   -0.13347E-05 77800   0.630E-02
   9 F= -.13982330E+02 E0= -.13982323E+02  d E =-.142318E-02
 curvature:  36.90 expect dE= 0.837E-03 dE for cont linesearch  0.827E-03
 ZBRENT: bracketing found
 ZBRENT: interpolating
 opt :  17.0119  next Energy=   -13.982637 (dE=-0.173E-02)
 bond charge predicted
       N       E                     dE             d eps       ncg     rms          rms(c)
DAV:   1    -0.139827728775E+02   -0.43791E-03   -0.25133E+00 87840   0.717E+00    0.101E-01
DAV:   2    -0.139830450310E+02   -0.27215E-03   -0.59218E-03110740   0.119E+00    0.991E-02
DAV:   3    -0.139829547616E+02    0.90269E-04   -0.33205E-03119160   0.124E+00    0.678E-02
DAV:   4    -0.139828746630E+02    0.80099E-04   -0.23339E-03150320   0.102E+00    0.604E-02
DAV:   5    -0.139827576414E+02    0.11702E-03   -0.54262E-04139760   0.609E-01    0.118E-02
DAV:   6    -0.139827558935E+02    0.17479E-05   -0.35476E-05121820   0.471E-02
  10 F= -.13982756E+02 E0= -.13982754E+02  d E =-.184889E-02
 curvature: -10.25 expect dE=-0.213E-03 dE for cont linesearch -0.495E-05
 trial: gam=-0.18370 g(F)=  0.208E-04 g(S)=  0.000E+00 ort = 0.163E-04 (trialstep = 0.554E+01)
 search vector abs. value=  0.333E-04
 bond charge predicted
       N       E                     dE             d eps       ncg     rms          rms(c)
DAV:   1    -0.139828285201E+02   -0.70879E-04   -0.50936E-02 87840   0.992E-01    0.164E-02
DAV:   2    -0.139828344285E+02   -0.59084E-05   -0.11428E-04134240   0.173E-01    0.143E-02
DAV:   3    -0.139828340219E+02    0.40658E-06   -0.79003E-05 96860   0.203E-01
  11 F= -.13982834E+02 E0= -.13982832E+02  d E =-.781284E-04
 trial-energy change:   -0.000078  1 .order   -0.000082   -0.000099   -0.000066
 step:  16.8718(harm= 16.8718)  dis= 0.00952  next Energy=   -13.982906 (dE=-0.150E-03)
 bond charge predicted
       N       E                     dE             d eps       ncg     rms          rms(c)
DAV:   1    -0.139828172352E+02    0.17193E-04   -0.21332E-01 87840   0.204E+00    0.370E-02
DAV:   2    -0.139828428442E+02   -0.25609E-04   -0.56136E-04111700   0.398E-01    0.330E-02
DAV:   3    -0.139828361392E+02    0.67050E-05   -0.38780E-04116820   0.442E-01    0.246E-02
DAV:   4    -0.139828276582E+02    0.84810E-05   -0.35660E-04 99100   0.412E-01    0.219E-02
DAV:   5    -0.139828094935E+02    0.18165E-04   -0.91191E-05 96620   0.233E-01    0.219E-03
DAV:   6    -0.139828102229E+02   -0.72934E-06   -0.10229E-05 62380   0.353E-02
  12 F= -.13982810E+02 E0= -.13982806E+02  d E =-.543294E-04
 curvature: -15.78 expect dE=-0.580E-04 dE for cont linesearch -0.395E-04
 trial: gam= 0.00000 g(F)=  0.368E-05 g(S)=  0.000E+00 ort =-0.912E-05 (trialstep = 0.780E+01)
 search vector abs. value=  0.368E-05
 reached required accuracy - stopping structural energy minimisation
 writing wavefunctions
