 running on   35 total cores
 distrk:  each k-point on   35 cores,    1 groups
 distr:  one band on    1 cores,   35 groups
 using from now: INCAR     
 vasp.5.4.1 24Jun15 (build Oct 26 2018 17:15:27) complex                        
  
 POSCAR found type information on POSCAR  Pt O  H 
 POSCAR found :  3 types and      19 ions
 scaLAPACK will be used

 ----------------------------------------------------------------------------- 
|                                                                             |
|           W    W    AA    RRRRR   N    N  II  N    N   GGGG   !!!           |
|           W    W   A  A   R    R  NN   N  II  NN   N  G    G  !!!           |
|           W    W  A    A  R    R  N N  N  II  N N  N  G       !!!           |
|           W WW W  AAAAAA  RRRRR   N  N N  II  N  N N  G  GGG   !            |
|           WW  WW  A    A  R   R   N   NN  II  N   NN  G    G                |
|           W    W  A    A  R    R  N    N  II  N    N   GGGG   !!!           |
|                                                                             |
|      For optimal performance we recommend to set                            |
|        NCORE= 4 - approx SQRT( number of cores)                             |
|      NCORE specifies how many cores store one orbital (NPAR=cpu/NCORE).     |
|      This setting can  greatly improve the performance of VASP for DFT.     |
|      The default, NPAR=number of cores might be grossly inefficient         |
|      on modern multi-core architectures or massively parallel machines.     |
|      Do your own testing !!!!                                               |
|      Unfortunately you need to use the default for GW and RPA calculations. |
|      (for HF NCORE is supported but not extensively tested yet)             |
|                                                                             |
 ----------------------------------------------------------------------------- 

 LDA part: xc-table for Ceperly-Alder, standard interpolation
 POSCAR, INCAR and KPOINTS ok, starting setup
 WARNING: small aliasing (wrap around) errors must be expected
 FFT: planning ...
 WAVECAR not read
 entering main loop
       N       E                     dE             d eps       ncg     rms          rms(c)
DAV:   1     0.171631158053E+04    0.17163E+04   -0.70928E+04  7140   0.138E+03
DAV:   2     0.668133401186E+02   -0.16495E+04   -0.15469E+04  7140   0.458E+02
DAV:   3    -0.105225863678E+03   -0.17204E+03   -0.16675E+03  9870   0.122E+02
DAV:   4    -0.111542318847E+03   -0.63165E+01   -0.62780E+01  7735   0.361E+01
DAV:   5    -0.111727980253E+03   -0.18566E+00   -0.18555E+00 10640   0.397E+00    0.169E+01
RMM:   6    -0.113075056062E+03   -0.13471E+01   -0.23560E+01  7146   0.207E+01    0.199E+01
RMM:   7    -0.126981374932E+03   -0.13906E+02   -0.12183E+01  7631   0.104E+01    0.245E+01
RMM:   8    -0.112559585676E+03    0.14422E+02   -0.95773E+00  7320   0.964E+00    0.176E+01
RMM:   9    -0.105448689445E+03    0.71109E+01   -0.26455E+00  7159   0.584E+00    0.738E+00
RMM:  10    -0.104656683772E+03    0.79201E+00   -0.90879E-01  7284   0.341E+00    0.405E+00
RMM:  11    -0.104435800621E+03    0.22088E+00   -0.36226E-01  7659   0.191E+00    0.252E+00
RMM:  12    -0.104409927616E+03    0.25873E-01   -0.15051E-01  7174   0.142E+00    0.220E+00
RMM:  13    -0.104357888712E+03    0.52039E-01   -0.10497E-01  7152   0.120E+00    0.166E+00
RMM:  14    -0.104318915056E+03    0.38974E-01   -0.40929E-02  7222   0.713E-01    0.100E+00
RMM:  15    -0.104305072842E+03    0.13842E-01   -0.15836E-02  7949   0.372E-01    0.470E-01
RMM:  16    -0.104300243635E+03    0.48292E-02   -0.35814E-03  7302   0.200E-01    0.237E-01
RMM:  17    -0.104298737711E+03    0.15059E-02   -0.12403E-03  7336   0.124E-01    0.259E-01
RMM:  18    -0.104296866220E+03    0.18715E-02   -0.15420E-03  7182   0.134E-01    0.294E-01
RMM:  19    -0.104294136015E+03    0.27302E-02   -0.14372E-03  7459   0.103E-01    0.203E-01
RMM:  20    -0.104293368870E+03    0.76715E-03   -0.56577E-04  7539   0.665E-02    0.157E-01
RMM:  21    -0.104292272731E+03    0.10961E-02   -0.11308E-03  7172   0.787E-02    0.659E-02
RMM:  22    -0.104292013469E+03    0.25926E-03   -0.48350E-04  7298   0.577E-02    0.407E-02
RMM:  23    -0.104291762770E+03    0.25070E-03   -0.17644E-04  6628   0.430E-02    0.289E-02
RMM:  24    -0.104291721500E+03    0.41270E-04   -0.12047E-04  6217   0.350E-02    0.101E-01
RMM:  25    -0.104291709055E+03    0.12445E-04   -0.83829E-05  5341   0.206E-02    0.561E-02
RMM:  26    -0.104291905943E+03   -0.19689E-03   -0.13238E-04  5895   0.221E-02    0.214E-02
RMM:  27    -0.104292071602E+03   -0.16566E-03   -0.20610E-05  4490   0.146E-02    0.171E-02
RMM:  28    -0.104294091298E+03   -0.20197E-02   -0.27888E-04  7180   0.343E-02    0.334E-01
RMM:  29    -0.104294448956E+03   -0.35766E-03   -0.44552E-05  5217   0.291E-02    0.343E-01
RMM:  30    -0.104294288001E+03    0.16095E-03   -0.87575E-06  4185   0.100E-02    0.322E-01
RMM:  31    -0.104293882333E+03    0.40567E-03   -0.50958E-06  4122   0.682E-03    0.276E-01
RMM:  32    -0.104293011227E+03    0.87111E-03   -0.80776E-05  6245   0.185E-02    0.125E-01
RMM:  33    -0.104292812623E+03    0.19860E-03   -0.67427E-05  5893   0.216E-02    0.651E-03
RMM:  34    -0.104292861225E+03   -0.48602E-04   -0.29659E-05  4795   0.159E-02    0.431E-02
RMM:  35    -0.104292884443E+03   -0.23218E-04   -0.80962E-06  4157   0.120E-02    0.517E-02
RMM:  36    -0.104292915690E+03   -0.31247E-04   -0.73871E-06  4173   0.859E-03    0.618E-02
RMM:  37    -0.104292873766E+03    0.41923E-04   -0.51735E-06  4111   0.819E-03    0.213E-02
RMM:  38    -0.104292868941E+03    0.48250E-05   -0.30960E-06  3903   0.603E-03
   1 F= -.10429287E+03 E0= -.10420712E+03  d E =-.104293E+03
 curvature:   0.00 expect dE= 0.000E+00 dE for cont linesearch  0.000E+00
 trial: gam= 0.00000 g(F)=  0.819E+00 g(S)=  0.000E+00 ort = 0.000E+00 (trialstep = 0.100E+01)
 search vector abs. value=  0.819E+00
 bond charge predicted
       N       E                     dE             d eps       ncg     rms          rms(c)
DAV:   1    -0.104656766807E+03   -0.36389E+00   -0.24771E+01  8155   0.131E+01    0.190E+00
RMM:   2    -0.106930594206E+03   -0.22738E+01   -0.11141E+00  7554   0.307E+00    0.106E+01
RMM:   3    -0.104819619116E+03    0.21110E+01   -0.31283E-01  7369   0.160E+00    0.297E+00
RMM:   4    -0.104665636073E+03    0.15398E+00   -0.11182E-01  7198   0.115E+00    0.133E+00
RMM:   5    -0.104644365025E+03    0.21271E-01   -0.22552E-02  7228   0.515E-01    0.694E-01
RMM:   6    -0.104639922944E+03    0.44421E-02   -0.10712E-02  7283   0.356E-01    0.453E-01
RMM:   7    -0.104638496514E+03    0.14264E-02   -0.71899E-03  7184   0.301E-01    0.333E-01
RMM:   8    -0.104637264620E+03    0.12319E-02   -0.31500E-03  7167   0.211E-01    0.199E-01
RMM:   9    -0.104636511661E+03    0.75296E-03   -0.59075E-04  7164   0.983E-02    0.499E-02
RMM:  10    -0.104636469005E+03    0.42656E-04   -0.15344E-04  7205   0.438E-02    0.387E-02
RMM:  11    -0.104636470405E+03   -0.14004E-05   -0.94236E-05  6860   0.298E-02
   2 F= -.10463647E+03 E0= -.10455205E+03  d E =-.343601E+00
 trial-energy change:   -0.343601  1 .order   -0.400471   -0.818821    0.017878
 step:   0.9648(harm=  0.9786)  dis= 0.06301  next Energy=  -104.636788 (dE=-0.344E+00)
 bond charge predicted
       N       E                     dE             d eps       ncg     rms          rms(c)
DAV:   1    -0.104636729507E+03   -0.26050E-03   -0.29785E-02  8715   0.457E-01    0.613E-02
RMM:   2    -0.104643232661E+03   -0.65032E-02   -0.16490E-03  7578   0.115E-01    0.682E-01
RMM:   3    -0.104636970023E+03    0.62626E-02   -0.66521E-04  7328   0.745E-02    0.779E-02
RMM:   4    -0.104636781309E+03    0.18871E-03   -0.13453E-04  7127   0.453E-02    0.477E-02
RMM:   5    -0.104636752536E+03    0.28773E-04   -0.23287E-05  4399   0.185E-02    0.218E-02
RMM:   6    -0.104636755653E+03   -0.31178E-05   -0.11234E-05  4050   0.187E-02
   3 F= -.10463676E+03 E0= -.10455232E+03  d E =-.343887E+00
 curvature:  -0.28 expect dE=-0.503E-01 dE for cont linesearch -0.164E-05
 trial: gam= 0.21399 g(F)=  0.177E+00 g(S)=  0.000E+00 ort = 0.218E-02 (trialstep = 0.993E+00)
 search vector abs. value=  0.216E+00
 bond charge predicted
       N       E                     dE             d eps       ncg     rms          rms(c)
DAV:   1    -0.104772363902E+03   -0.13561E+00   -0.11200E+01  7140   0.888E+00    0.533E-01
RMM:   2    -0.104947596801E+03   -0.17523E+00   -0.19117E-01  7185   0.160E+00    0.337E+00
RMM:   3    -0.104793712998E+03    0.15388E+00   -0.30860E-02  7420   0.660E-01    0.706E-01
RMM:   4    -0.104788545279E+03    0.51677E-02   -0.10836E-02  7264   0.375E-01    0.537E-01
RMM:   5    -0.104784004526E+03    0.45408E-02   -0.24821E-03  7177   0.182E-01    0.193E-01
RMM:   6    -0.104783928706E+03    0.75820E-04   -0.16597E-03  7158   0.141E-01    0.196E-01
RMM:   7    -0.104783448260E+03    0.48045E-03   -0.15322E-03  7192   0.128E-01    0.972E-02
RMM:   8    -0.104783393966E+03    0.54293E-04   -0.55607E-04  7197   0.856E-02    0.640E-02
RMM:   9    -0.104783324937E+03    0.69030E-04   -0.93165E-05  7155   0.353E-02    0.283E-02
RMM:  10    -0.104783314338E+03    0.10599E-04   -0.30863E-05  4553   0.214E-02    0.224E-02
RMM:  11    -0.104783308488E+03    0.58494E-05   -0.45470E-05  5330   0.255E-02
   4 F= -.10478331E+03 E0= -.10469907E+03  d E =-.146553E+00
 trial-energy change:   -0.146553  1 .order   -0.146729   -0.176610   -0.116848
 step:   2.9344(harm=  2.9344)  dis= 0.06123  next Energy=  -104.897717 (dE=-0.261E+00)
 bond charge predicted
       N       E                     dE             d eps       ncg     rms          rms(c)
DAV:   1    -0.104839921356E+03   -0.56607E-01   -0.42771E+01  7140   0.175E+01    0.105E+00
RMM:   2    -0.105008955219E+03   -0.16903E+00   -0.82363E-01  7161   0.402E+00    0.283E+00
RMM:   3    -0.104979439879E+03    0.29515E-01   -0.15239E-01  9732   0.112E+00    0.241E+00
RMM:   4    -0.104920247135E+03    0.59193E-01   -0.34470E-02  7239   0.673E-01    0.106E+00
RMM:   5    -0.104901717521E+03    0.18530E-01   -0.89629E-03  7156   0.375E-01    0.409E-01
RMM:   6    -0.104900523287E+03    0.11942E-02   -0.67232E-03  7148   0.269E-01    0.364E-01
RMM:   7    -0.104899059521E+03    0.14638E-02   -0.71497E-03  7174   0.284E-01    0.209E-01
RMM:   8    -0.104899148297E+03   -0.88776E-04   -0.30754E-03  7206   0.201E-01    0.187E-01
RMM:   9    -0.104898726362E+03    0.42193E-03   -0.57615E-04  7262   0.869E-02    0.107E-01
RMM:  10    -0.104898642150E+03    0.84212E-04   -0.19866E-04  7118   0.493E-02    0.825E-02
RMM:  11    -0.104898546903E+03    0.95247E-04   -0.21095E-04  7116   0.444E-02    0.213E-02
RMM:  12    -0.104898559237E+03   -0.12335E-04   -0.33225E-05  4718   0.238E-02    0.217E-02
RMM:  13    -0.104898584159E+03   -0.24922E-04   -0.13996E-05  4220   0.179E-02    0.288E-02
RMM:  14    -0.104898586729E+03   -0.25695E-05   -0.50511E-06  4096   0.101E-02
   5 F= -.10489859E+03 E0= -.10481421E+03  d E =-.261831E+00
 curvature:  -1.78 expect dE=-0.252E-01 dE for cont linesearch -0.242E-04
 trial: gam= 0.02515 g(F)=  0.142E-01 g(S)=  0.000E+00 ort = 0.171E-02 (trialstep = 0.138E+01)
 search vector abs. value=  0.144E-01
 bond charge predicted
       N       E                     dE             d eps       ncg     rms          rms(c)
DAV:   1    -0.104915085497E+03   -0.16501E-01   -0.97078E-01  9170   0.278E+00    0.222E-01
RMM:   2    -0.104960761257E+03   -0.45676E-01   -0.22048E-02  7532   0.482E-01    0.180E+00
RMM:   3    -0.104918817923E+03    0.41943E-01   -0.55636E-03  7354   0.238E-01    0.378E-01
RMM:   4    -0.104916395842E+03    0.24221E-02   -0.17974E-03  7166   0.159E-01    0.177E-01
RMM:   5    -0.104915932880E+03    0.46296E-03   -0.42078E-04  7390   0.680E-02    0.844E-02
RMM:   6    -0.104915851935E+03    0.80945E-04   -0.17853E-04  7149   0.488E-02    0.601E-02
RMM:   7    -0.104915822296E+03    0.29638E-04   -0.16857E-04  7156   0.456E-02    0.421E-02
RMM:   8    -0.104915802197E+03    0.20100E-04   -0.53623E-05  5821   0.270E-02    0.255E-02
RMM:   9    -0.104915794728E+03    0.74682E-05   -0.86629E-06  4013   0.149E-02
   6 F= -.10491579E+03 E0= -.10483132E+03  d E =-.172080E-01
 trial-energy change:   -0.017208  1 .order   -0.017182   -0.019641   -0.014723
 step:   5.5171(harm=  5.5171)  dis= 0.03793  next Energy=  -104.937812 (dE=-0.392E-01)
 bond charge predicted
       N       E                     dE             d eps       ncg     rms          rms(c)
DAV:   1    -0.104929193170E+03   -0.13391E-01   -0.87201E+00  7280   0.835E+00    0.684E-01
RMM:   2    -0.105412159081E+03   -0.48297E+00   -0.21331E-01  7411   0.151E+00    0.546E+00
RMM:   3    -0.104957963441E+03    0.45420E+00   -0.56519E-02  7307   0.782E-01    0.100E+00
RMM:   4    -0.104941249093E+03    0.16714E-01   -0.16874E-02  7161   0.482E-01    0.563E-01
RMM:   5    -0.104936825374E+03    0.44237E-02   -0.40177E-03  7460   0.209E-01    0.262E-01
RMM:   6    -0.104936246983E+03    0.57839E-03   -0.15926E-03  7157   0.144E-01    0.187E-01
RMM:   7    -0.104936139715E+03    0.10727E-03   -0.15541E-03  7169   0.135E-01    0.135E-01
RMM:   8    -0.104935858557E+03    0.28116E-03   -0.59209E-04  7198   0.869E-02    0.616E-02
RMM:   9    -0.104935797435E+03    0.61121E-04   -0.76309E-05  6763   0.304E-02    0.304E-02
RMM:  10    -0.104935785992E+03    0.11443E-04   -0.20548E-05  4212   0.184E-02    0.195E-02
RMM:  11    -0.104935784674E+03    0.13180E-05   -0.19460E-05  4129   0.201E-02
   7 F= -.10493578E+03 E0= -.10485098E+03  d E =-.371979E-01
 curvature:  -2.79 expect dE=-0.156E+00 dE for cont linesearch -0.349E-03
 trial: gam= 4.03383 g(F)=  0.557E-01 g(S)=  0.000E+00 ort =-0.134E-02 (trialstep = 0.114E+00)
 search vector abs. value=  0.279E+00
 bond charge predicted
       N       E                     dE             d eps       ncg     rms          rms(c)
DAV:   1    -0.104941331697E+03   -0.55457E-02   -0.84437E-02  9240   0.816E-01    0.420E-02
RMM:   2    -0.104941907189E+03   -0.57549E-03   -0.10610E-03  7176   0.129E-01    0.190E-01
RMM:   3    -0.104941498616E+03    0.40857E-03   -0.14703E-04  7482   0.409E-02    0.680E-02
RMM:   4    -0.104941442987E+03    0.55629E-04   -0.49328E-05  5737   0.286E-02    0.369E-02
RMM:   5    -0.104941427918E+03    0.15069E-04   -0.18568E-05  4096   0.188E-02    0.233E-02
RMM:   6    -0.104941423363E+03    0.45550E-05   -0.16773E-05  4005   0.218E-02
   8 F= -.10494142E+03 E0= -.10485659E+03  d E =-.563869E-02
 ZBRENT: can't locate minimum, use default step
 trial-energy change:   -0.005639  1 .order   -0.005641   -0.005732   -0.005551
 step:   0.4555(harm=  3.6008)  dis= 0.00918  next Energy=  -105.026398 (dE=-0.906E-01)
 bond charge predicted
       N       E                     dE             d eps       ncg     rms          rms(c)
DAV:   1    -0.104956336076E+03   -0.14908E-01   -0.75945E-01  7910   0.245E+00    0.129E-01
RMM:   2    -0.104965491115E+03   -0.91550E-02   -0.10575E-02  7165   0.404E-01    0.782E-01
RMM:   3    -0.104957796893E+03    0.76942E-02   -0.16156E-03  7532   0.142E-01    0.176E-01
RMM:   4    -0.104957383295E+03    0.41360E-03   -0.52610E-04  7182   0.889E-02    0.110E-01
RMM:   5    -0.104957239700E+03    0.14360E-03   -0.15041E-04  7153   0.411E-02    0.668E-02
RMM:   6    -0.104957203787E+03    0.35912E-04   -0.11956E-04  7099   0.391E-02    0.505E-02
RMM:   7    -0.104957181790E+03    0.21998E-04   -0.90462E-05  7039   0.326E-02    0.303E-02
RMM:   8    -0.104957165942E+03    0.15847E-04   -0.15752E-05  4080   0.150E-02    0.932E-03
RMM:   9    -0.104957164411E+03    0.15316E-05   -0.55336E-06  3907   0.132E-02
   9 F= -.10495716E+03 E0= -.10487230E+03  d E =-.213797E-01
 curvature:  -1.86 expect dE=-0.861E-01 dE for cont linesearch -0.128E-01
 ZBRENT: increasing intervall
 opt :   1.1389  next Energy=  -104.983665 (dE=-0.479E-01)
 bond charge predicted
       N       E                     dE             d eps       ncg     rms          rms(c)
DAV:   1    -0.104980150189E+03   -0.22984E-01   -0.30386E+00  8015   0.490E+00    0.252E-01
RMM:   2    -0.105009757186E+03   -0.29607E-01   -0.41631E-02  7192   0.806E-01    0.138E+00
RMM:   3    -0.104985759670E+03    0.23998E-01   -0.62253E-03  7818   0.279E-01    0.346E-01
RMM:   4    -0.104984335189E+03    0.14245E-02   -0.19689E-03  7200   0.168E-01    0.223E-01
RMM:   5    -0.104983790656E+03    0.54453E-03   -0.60639E-04  7176   0.823E-02    0.130E-01
RMM:   6    -0.104983670815E+03    0.11984E-03   -0.49894E-04  7140   0.786E-02    0.104E-01
RMM:   7    -0.104983598106E+03    0.72709E-04   -0.39620E-04  7176   0.695E-02    0.726E-02
RMM:   8    -0.104983504864E+03    0.93241E-04   -0.96797E-05  7069   0.348E-02    0.161E-02
RMM:   9    -0.104983499754E+03    0.51107E-05   -0.14513E-05  3975   0.151E-02
  10 F= -.10498350E+03 E0= -.10489853E+03  d E =-.477151E-01
 curvature:  -3.86 expect dE=-0.137E+00 dE for cont linesearch -0.160E-01
 ZBRENT: increasing intervall
 opt :   2.5055  next Energy=  -105.016582 (dE=-0.808E-01)
 bond charge predicted
       N       E                     dE             d eps       ncg     rms          rms(c)
DAV:   1    -0.105001239629E+03   -0.17735E-01   -0.12148E+01  7140   0.982E+00    0.506E-01
RMM:   2    -0.105097670842E+03   -0.96431E-01   -0.18252E-01  7142   0.181E+00    0.239E+00
RMM:   3    -0.105025386812E+03    0.72284E-01   -0.29531E-02  9329   0.558E-01    0.691E-01
RMM:   4    -0.105020490070E+03    0.48967E-02   -0.73056E-03  7160   0.327E-01    0.470E-01
RMM:   5    -0.105017890909E+03    0.25992E-02   -0.21520E-03  7163   0.161E-01    0.259E-01
RMM:   6    -0.105017854948E+03    0.35961E-04   -0.20802E-03  7140   0.163E-01    0.254E-01
RMM:   7    -0.105017333899E+03    0.52105E-03   -0.20709E-03  7184   0.153E-01    0.139E-01
RMM:   8    -0.105017000914E+03    0.33298E-03   -0.45198E-04  7191   0.747E-02    0.302E-02
RMM:   9    -0.105016977719E+03    0.23195E-04   -0.78031E-05  6882   0.303E-02    0.256E-02
RMM:  10    -0.105016967487E+03    0.10232E-04   -0.20753E-05  4124   0.168E-02    0.148E-02
RMM:  11    -0.105016969903E+03   -0.24156E-05   -0.16363E-05  4072   0.174E-02
  11 F= -.10501697E+03 E0= -.10493169E+03  d E =-.811852E-01
 curvature:  -8.00 expect dE=-0.176E+00 dE for cont linesearch -0.692E-02
 ZBRENT: increasing intervall
 opt :   5.2388  next Energy=  -105.009072 (dE=-0.733E-01)
 bond charge predicted
       N       E                     dE             d eps       ncg     rms          rms(c)
DAV:   1    -0.104927369692E+03    0.89598E-01   -0.48605E+01  7140   0.198E+01    0.104E+00
RMM:   2    -0.105196302840E+03   -0.26893E+00   -0.84365E-01  7141   0.428E+00    0.360E+00
RMM:   3    -0.105040332285E+03    0.15597E+00   -0.15272E-01  9938   0.112E+00    0.152E+00
RMM:   4    -0.105021497519E+03    0.18835E-01   -0.29376E-02  7143   0.654E-01    0.100E+00
RMM:   5    -0.105008941450E+03    0.12556E-01   -0.80328E-03  7140   0.336E-01    0.536E-01
RMM:   6    -0.105009812778E+03   -0.87133E-03   -0.90079E-03  7143   0.340E-01    0.598E-01
RMM:   7    -0.105006283575E+03    0.35292E-02   -0.11107E-02  7227   0.346E-01    0.255E-01
RMM:   8    -0.105005262118E+03    0.10215E-02   -0.22386E-03  7239   0.172E-01    0.821E-02
RMM:   9    -0.105005122890E+03    0.13923E-03   -0.36179E-04  7324   0.614E-02    0.593E-02
RMM:  10    -0.105005062021E+03    0.60869E-04   -0.11380E-04  7110   0.362E-02    0.370E-02
RMM:  11    -0.105005045108E+03    0.16913E-04   -0.96832E-05  6971   0.326E-02    0.208E-02
RMM:  12    -0.105005054308E+03   -0.92002E-05   -0.28940E-05  4400   0.203E-02
  12 F= -.10500505E+03 E0= -.10491860E+03  d E =-.692696E-01
 curvature:   9.12 expect dE= 0.277E+00 dE for cont linesearch  0.185E-01
 ZBRENT: bracketing found
 ZBRENT: interpolating
 opt :   3.5858  next Energy=  -105.025368 (dE=-0.896E-01)
 bond charge predicted
       N       E                     dE             d eps       ncg     rms          rms(c)
DAV:   1    -0.105000977276E+03    0.40678E-02   -0.17771E+01  7140   0.119E+01    0.628E-01
RMM:   2    -0.105148550598E+03   -0.14757E+00   -0.29852E-01  7143   0.243E+00    0.303E+00
RMM:   3    -0.105043625241E+03    0.10493E+00   -0.47354E-02  8998   0.632E-01    0.995E-01
RMM:   4    -0.105029644461E+03    0.13981E-01   -0.11000E-02  7142   0.417E-01    0.524E-01
RMM:   5    -0.105026143046E+03    0.35014E-02   -0.32588E-03  7179   0.191E-01    0.300E-01
RMM:   6    -0.105026184852E+03   -0.41806E-04   -0.33038E-03  7147   0.200E-01    0.288E-01
RMM:   7    -0.105025563176E+03    0.62168E-03   -0.31075E-03  7192   0.184E-01    0.181E-01
RMM:   8    -0.105025131086E+03    0.43209E-03   -0.74631E-04  7178   0.963E-02    0.924E-02
RMM:   9    -0.105025016772E+03    0.11431E-03   -0.13532E-04  7149   0.406E-02    0.425E-02
RMM:  10    -0.105024981655E+03    0.35117E-04   -0.53527E-05  6176   0.245E-02    0.223E-02
RMM:  11    -0.105024973733E+03    0.79228E-05   -0.27425E-05  4238   0.198E-02
  13 F= -.10502497E+03 E0= -.10493930E+03  d E =-.891891E-01
 curvature:  -4.14 expect dE=-0.830E-01 dE for cont linesearch -0.167E-07
 trial: gam= 0.04063 g(F)=  0.200E-01 g(S)=  0.000E+00 ort = 0.335E-04 (trialstep = 0.808E+00)
 search vector abs. value=  0.205E-01
 bond charge predicted
       N       E                     dE             d eps       ncg     rms          rms(c)
DAV:   1    -0.105038137880E+03   -0.13156E-01   -0.43464E-01  7735   0.176E+00    0.109E-01
RMM:   2    -0.105042672928E+03   -0.45350E-02   -0.67927E-03  7219   0.291E-01    0.552E-01
RMM:   3    -0.105038981908E+03    0.36910E-02   -0.95588E-04  7444   0.113E-01    0.152E-01
RMM:   4    -0.105038722060E+03    0.25985E-03   -0.33489E-04  7196   0.655E-02    0.108E-01
RMM:   5    -0.105038563883E+03    0.15818E-03   -0.10381E-04  7086   0.365E-02    0.454E-02
RMM:   6    -0.105038563956E+03   -0.73194E-07   -0.11436E-04  7126   0.367E-02    0.444E-02
RMM:   7    -0.105038543406E+03    0.20550E-04   -0.63198E-05  6552   0.276E-02    0.244E-02
RMM:   8    -0.105038534228E+03    0.91781E-05   -0.12091E-05  3883   0.157E-02
  14 F= -.10503853E+03 E0= -.10495293E+03  d E =-.135605E-01
 trial-energy change:   -0.013560  1 .order   -0.013592   -0.016189   -0.010996
 step:   2.5198(harm=  2.5198)  dis= 0.02293  next Energy=  -105.050208 (dE=-0.252E-01)
 bond charge predicted
       N       E                     dE             d eps       ncg     rms          rms(c)
DAV:   1    -0.105048828332E+03   -0.10285E-01   -0.19437E+00  7245   0.372E+00    0.230E-01
RMM:   2    -0.105072109931E+03   -0.23282E-01   -0.32634E-02  7166   0.648E-01    0.126E+00
RMM:   3    -0.105052737441E+03    0.19372E-01   -0.47315E-03  7793   0.234E-01    0.314E-01
RMM:   4    -0.105051540474E+03    0.11970E-02   -0.14117E-03  7166   0.136E-01    0.225E-01
RMM:   5    -0.105050854760E+03    0.68571E-03   -0.43951E-04  7143   0.749E-02    0.934E-02
RMM:   6    -0.105050868442E+03   -0.13682E-04   -0.48995E-04  7143   0.758E-02    0.931E-02
RMM:   7    -0.105050780302E+03    0.88140E-04   -0.29933E-04  7176   0.587E-02    0.519E-02
RMM:   8    -0.105050738073E+03    0.42229E-04   -0.58239E-05  6234   0.277E-02    0.231E-02
RMM:   9    -0.105050725826E+03    0.12247E-04   -0.14697E-05  3973   0.149E-02    0.986E-03
RMM:  10    -0.105050724948E+03    0.87817E-06   -0.12294E-05  3900   0.141E-02
  15 F= -.10505072E+03 E0= -.10496521E+03  d E =-.257512E-01
 curvature:  -1.29 expect dE=-0.163E-01 dE for cont linesearch -0.537E-04
 trial: gam= 0.58558 g(F)=  0.126E-01 g(S)=  0.000E+00 ort = 0.924E-03 (trialstep = 0.114E+01)
 search vector abs. value=  0.207E-01
 bond charge predicted
       N       E                     dE             d eps       ncg     rms          rms(c)
DAV:   1    -0.105061125247E+03   -0.10399E-01   -0.14212E+00  7210   0.333E+00    0.265E-01
RMM:   2    -0.105115158273E+03   -0.54033E-01   -0.32600E-02  7237   0.576E-01    0.195E+00
RMM:   3    -0.105065747558E+03    0.49411E-01   -0.71172E-03  7262   0.289E-01    0.411E-01
RMM:   4    -0.105063097396E+03    0.26502E-02   -0.26035E-03  7190   0.186E-01    0.237E-01
RMM:   5    -0.105062211333E+03    0.88606E-03   -0.55113E-04  7207   0.845E-02    0.792E-02
RMM:   6    -0.105062157826E+03    0.53507E-04   -0.21577E-04  7177   0.526E-02    0.645E-02
RMM:   7    -0.105062120949E+03    0.36877E-04   -0.21290E-04  7244   0.471E-02    0.536E-02
RMM:   8    -0.105062077661E+03    0.43288E-04   -0.97164E-05  6961   0.337E-02    0.231E-02
RMM:   9    -0.105062068048E+03    0.96127E-05   -0.13880E-05  4147   0.151E-02
  16 F= -.10506207E+03 E0= -.10497637E+03  d E =-.113431E-01
 trial-energy change:   -0.011343  1 .order   -0.011346   -0.014972   -0.007721
 step:   2.3480(harm=  2.3480)  dis= 0.01893  next Energy=  -105.066182 (dE=-0.155E-01)
 bond charge predicted
       N       E                     dE             d eps       ncg     rms          rms(c)
DAV:   1    -0.105065103314E+03   -0.30257E-02   -0.16132E+00  8925   0.355E+00    0.281E-01
RMM:   2    -0.105118567718E+03   -0.53464E-01   -0.34527E-02  7419   0.592E-01    0.195E+00
RMM:   3    -0.105070525280E+03    0.48042E-01   -0.76414E-03  7318   0.297E-01    0.477E-01
RMM:   4    -0.105067242632E+03    0.32826E-02   -0.28937E-03  7167   0.197E-01    0.262E-01
RMM:   5    -0.105066148497E+03    0.10941E-02   -0.63246E-04  7192   0.906E-02    0.833E-02
RMM:   6    -0.105066094135E+03    0.54362E-04   -0.24426E-04  7165   0.570E-02    0.692E-02
RMM:   7    -0.105066039584E+03    0.54551E-04   -0.21903E-04  7228   0.492E-02    0.490E-02
RMM:   8    -0.105066019456E+03    0.20128E-04   -0.10017E-04  6995   0.346E-02    0.315E-02
RMM:   9    -0.105066003994E+03    0.15462E-04   -0.14514E-05  4151   0.154E-02    0.154E-02
RMM:  10    -0.105066003319E+03    0.67483E-06   -0.66573E-06  3962   0.151E-02
  17 F= -.10506600E+03 E0= -.10498011E+03  d E =-.152784E-01
 curvature:  -1.85 expect dE=-0.532E-02 dE for cont linesearch -0.721E-05
 trial: gam= 0.32298 g(F)=  0.288E-02 g(S)=  0.000E+00 ort =-0.284E-03 (trialstep = 0.138E+01)
 search vector abs. value=  0.486E-02
 bond charge predicted
       N       E                     dE             d eps       ncg     rms          rms(c)
DAV:   1    -0.105069334747E+03   -0.33308E-02   -0.32538E-01  9100   0.158E+00    0.877E-02
RMM:   2    -0.105071207391E+03   -0.18726E-02   -0.38848E-03  7165   0.239E-01    0.350E-01
RMM:   3    -0.105070115496E+03    0.10919E-02   -0.55362E-04  7839   0.813E-02    0.173E-01
RMM:   4    -0.105069699256E+03    0.41624E-03   -0.24881E-04  7144   0.588E-02    0.720E-02
RMM:   5    -0.105069644196E+03    0.55060E-04   -0.80326E-05  6614   0.313E-02    0.471E-02
RMM:   6    -0.105069612926E+03    0.31270E-04   -0.58977E-05  6213   0.273E-02    0.234E-02
RMM:   7    -0.105069616475E+03   -0.35496E-05   -0.37136E-05  4907   0.243E-02
  18 F= -.10506962E+03 E0= -.10498356E+03  d E =-.361316E-02
 ZBRENT: can't locate minimum, use default step
 trial-energy change:   -0.003613  1 .order   -0.003611   -0.003844   -0.003378
 step:   5.5172(harm= 11.3775)  dis= 0.01953  next Energy=  -105.081856 (dE=-0.159E-01)
 bond charge predicted
       N       E                     dE             d eps       ncg     rms          rms(c)
DAV:   1    -0.105074400557E+03   -0.47876E-02   -0.29252E+00  7420   0.475E+00    0.277E-01
RMM:   2    -0.105102975441E+03   -0.28575E-01   -0.42354E-02  7154   0.814E-01    0.138E+00
RMM:   3    -0.105081841309E+03    0.21134E-01   -0.69197E-03  8080   0.274E-01    0.496E-01
RMM:   4    -0.105078227798E+03    0.36135E-02   -0.26262E-03  7149   0.194E-01    0.218E-01
RMM:   5    -0.105077672771E+03    0.55503E-03   -0.74561E-04  7231   0.935E-02    0.141E-01
RMM:   6    -0.105077410020E+03    0.26275E-03   -0.46209E-04  7156   0.699E-02    0.800E-02
RMM:   7    -0.105077447413E+03   -0.37393E-04   -0.44356E-04  7263   0.696E-02    0.878E-02
RMM:   8    -0.105077325254E+03    0.12216E-03   -0.14708E-04  7128   0.405E-02    0.225E-02
RMM:   9    -0.105077317926E+03    0.73274E-05   -0.20174E-05  4218   0.181E-02
  19 F= -.10507732E+03 E0= -.10499091E+03  d E =-.113146E-01
 curvature:  -6.51 expect dE=-0.145E-01 dE for cont linesearch -0.253E-02
 ZBRENT: increasing intervall
 opt :  13.7929  next Energy=  -105.079799 (dE=-0.138E-01)
 bond charge predicted
       N       E                     dE             d eps       ncg     rms          rms(c)
DAV:   1    -0.105066935556E+03    0.10390E-01   -0.11697E+01  7385   0.951E+00    0.579E-01
RMM:   2    -0.105188762018E+03   -0.12183E+00   -0.18703E-01  7147   0.186E+00    0.279E+00
RMM:   3    -0.105100903128E+03    0.87859E-01   -0.33737E-02  8560   0.565E-01    0.110E+00
RMM:   4    -0.105083794242E+03    0.17109E-01   -0.12043E-02  7147   0.421E-01    0.456E-01
RMM:   5    -0.105081322427E+03    0.24718E-02   -0.31899E-03  7235   0.194E-01    0.278E-01
RMM:   6    -0.105080296183E+03    0.10262E-02   -0.17257E-03  7151   0.137E-01    0.172E-01
RMM:   7    -0.105080503945E+03   -0.20776E-03   -0.20766E-03  7266   0.150E-01    0.192E-01
RMM:   8    -0.105079903032E+03    0.60091E-03   -0.73074E-04  7213   0.914E-02    0.490E-02
RMM:   9    -0.105079874064E+03    0.28968E-04   -0.11809E-04  7363   0.388E-02    0.353E-02
RMM:  10    -0.105079854071E+03    0.19993E-04   -0.23717E-05  4275   0.186E-02    0.201E-02
RMM:  11    -0.105079848700E+03    0.53708E-05   -0.22232E-05  4109   0.213E-02
  20 F= -.10507985E+03 E0= -.10499282E+03  d E =-.138454E-01
 curvature:  -6.38 expect dE=-0.406E-01 dE for cont linesearch -0.690E-03
 ZBRENT: bracketing found
 ZBRENT: interpolating
 opt :  10.9351  next Energy=  -105.080885 (dE=-0.149E-01)
 bond charge predicted
       N       E                     dE             d eps       ncg     rms          rms(c)
DAV:   1    -0.105079571818E+03    0.28225E-03   -0.13963E+00  7875   0.328E+00    0.186E-01
RMM:   2    -0.105096014776E+03   -0.16443E-01   -0.19743E-02  7195   0.529E-01    0.109E+00
RMM:   3    -0.105082798511E+03    0.13216E-01   -0.31385E-03  7724   0.185E-01    0.305E-01
RMM:   4    -0.105081295871E+03    0.15026E-02   -0.11429E-03  7144   0.133E-01    0.145E-01
RMM:   5    -0.105081072046E+03    0.22382E-03   -0.33549E-04  7238   0.626E-02    0.949E-02
RMM:   6    -0.105080942321E+03    0.12972E-03   -0.23468E-04  7151   0.513E-02    0.541E-02
RMM:   7    -0.105080949281E+03   -0.69600E-05   -0.19492E-04  7261   0.456E-02    0.537E-02
RMM:   8    -0.105080906106E+03    0.43175E-04   -0.62150E-05  6347   0.265E-02    0.185E-02
RMM:   9    -0.105080902371E+03    0.37348E-05   -0.10623E-05  3928   0.149E-02
  21 F= -.10508090E+03 E0= -.10499407E+03  d E =-.148991E-01
 curvature:  -9.58 expect dE=-0.408E-01 dE for cont linesearch -0.181E-04
 trial: gam= 1.22890 g(F)=  0.426E-02 g(S)=  0.000E+00 ort =-0.958E-04 (trialstep = 0.141E+01)
 search vector abs. value=  0.114E-01
 bond charge predicted
       N       E                     dE             d eps       ncg     rms          rms(c)
DAV:   1    -0.105084756192E+03   -0.38501E-02   -0.10089E+00  7560   0.288E+00    0.209E-01
RMM:   2    -0.105124286341E+03   -0.39530E-01   -0.20670E-02  7274   0.490E-01    0.169E+00
RMM:   3    -0.105088285907E+03    0.36000E-01   -0.47852E-03  7272   0.227E-01    0.336E-01
RMM:   4    -0.105086167043E+03    0.21189E-02   -0.15849E-03  7162   0.149E-01    0.165E-01
RMM:   5    -0.105085768950E+03    0.39809E-03   -0.37956E-04  7238   0.669E-02    0.784E-02
RMM:   6    -0.105085669295E+03    0.99654E-04   -0.16184E-04  7166   0.426E-02    0.495E-02
RMM:   7    -0.105085664288E+03    0.50077E-05   -0.16168E-04  7185   0.426E-02    0.504E-02
RMM:   8    -0.105085625382E+03    0.38906E-04   -0.60254E-05  6255   0.267E-02    0.169E-02
RMM:   9    -0.105085620723E+03    0.46593E-05   -0.94651E-06  3981   0.146E-02
  22 F= -.10508562E+03 E0= -.10499859E+03  d E =-.471835E-02
 trial-energy change:   -0.004718  1 .order   -0.004637   -0.005826   -0.003449
 step:   2.8510(harm=  3.4480)  dis= 0.01735  next Energy=  -105.087477 (dE=-0.657E-02)
 bond charge predicted
       N       E                     dE             d eps       ncg     rms          rms(c)
DAV:   1    -0.105086980153E+03   -0.13548E-02   -0.10613E+00  7910   0.295E+00    0.218E-01
RMM:   2    -0.105128553430E+03   -0.41573E-01   -0.21521E-02  7325   0.506E-01    0.173E+00
RMM:   3    -0.105090747598E+03    0.37806E-01   -0.50509E-03  7291   0.233E-01    0.355E-01
RMM:   4    -0.105088453313E+03    0.22943E-02   -0.17275E-03  7151   0.157E-01    0.172E-01
RMM:   5    -0.105088030345E+03    0.42297E-03   -0.41119E-04  7240   0.702E-02    0.822E-02
RMM:   6    -0.105087916138E+03    0.11421E-03   -0.16528E-04  7166   0.442E-02    0.510E-02
RMM:   7    -0.105087906014E+03    0.10124E-04   -0.15930E-04  7177   0.428E-02    0.495E-02
RMM:   8    -0.105087871896E+03    0.34118E-04   -0.61803E-05  6305   0.272E-02    0.189E-02
RMM:   9    -0.105087866000E+03    0.58959E-05   -0.98849E-06  3979   0.147E-02
  23 F= -.10508787E+03 E0= -.10500062E+03  d E =-.696363E-02
 curvature:  -4.33 expect dE=-0.107E-01 dE for cont linesearch -0.205E-03
 ZBRENT: extrapolating
 opt :   3.4683  next Energy=  -105.088093 (dE=-0.719E-02)
 bond charge predicted
       N       E                     dE             d eps       ncg     rms          rms(c)
DAV:   1    -0.105087923840E+03   -0.51945E-04   -0.19384E-01  8365   0.126E+00    0.931E-02
RMM:   2    -0.105094964676E+03   -0.70408E-02   -0.38609E-03  7367   0.215E-01    0.723E-01
RMM:   3    -0.105088674637E+03    0.62900E-02   -0.90961E-04  7292   0.984E-02    0.167E-01
RMM:   4    -0.105088187663E+03    0.48697E-03   -0.31724E-04  7149   0.682E-02    0.741E-02
RMM:   5    -0.105088110001E+03    0.77662E-04   -0.73140E-05  6492   0.301E-02    0.355E-02
RMM:   6    -0.105088091546E+03    0.18456E-04   -0.27189E-05  4320   0.216E-02    0.220E-02
RMM:   7    -0.105088091268E+03    0.27747E-06   -0.30328E-05  4411   0.260E-02
  24 F= -.10508809E+03 E0= -.10500074E+03  d E =-.718890E-02
 curvature:  -4.78 expect dE=-0.169E-01 dE for cont linesearch -0.187E-05
 trial: gam= 0.86984 g(F)=  0.353E-02 g(S)=  0.000E+00 ort = 0.667E-04 (trialstep = 0.169E+01)
 search vector abs. value=  0.122E-01
 bond charge predicted
       N       E                     dE             d eps       ncg     rms          rms(c)
DAV:   1    -0.105090777608E+03   -0.26861E-02   -0.10837E+00  7350   0.285E+00    0.146E-01
RMM:   2    -0.105092028979E+03   -0.12514E-02   -0.14374E-02  7141   0.464E-01    0.117E-01
RMM:   3    -0.105092497803E+03   -0.46882E-03   -0.16548E-03  8161   0.156E-01    0.196E-01
RMM:   4    -0.105092635569E+03   -0.13777E-03   -0.36133E-04  8653   0.529E-02    0.239E-01
RMM:   5    -0.105091969314E+03    0.66626E-03   -0.19515E-04  7134   0.491E-02    0.620E-02
RMM:   6    -0.105092004093E+03   -0.34779E-04   -0.16461E-04  7230   0.420E-02    0.882E-02
RMM:   7    -0.105091910831E+03    0.93263E-04   -0.16777E-04  7162   0.400E-02    0.359E-02
RMM:   8    -0.105091897485E+03    0.13346E-04   -0.39618E-05  5139   0.228E-02    0.205E-02
RMM:   9    -0.105091890915E+03    0.65701E-05   -0.11305E-05  3933   0.189E-02
  25 F= -.10509189E+03 E0= -.10500441E+03  d E =-.379965E-02
 trial-energy change:   -0.003800  1 .order   -0.003888   -0.006061   -0.001715
 step:   2.5018(harm=  2.3545)  dis= 0.01512  next Energy=  -105.092294 (dE=-0.420E-02)
 bond charge predicted
       N       E                     dE             d eps       ncg     rms          rms(c)
DAV:   1    -0.105091988322E+03   -0.90837E-04   -0.25139E-01  8645   0.137E+00    0.693E-02
RMM:   2    -0.105092349838E+03   -0.36152E-03   -0.29237E-03  7140   0.211E-01    0.108E-01
RMM:   3    -0.105092825023E+03   -0.47518E-03   -0.40508E-04  8863   0.704E-02    0.214E-01
RMM:   4    -0.105092266823E+03    0.55820E-03   -0.13901E-04  7201   0.409E-02    0.531E-02
RMM:   5    -0.105092219727E+03    0.47096E-04   -0.35098E-05  4832   0.216E-02    0.283E-02
RMM:   6    -0.105092239345E+03   -0.19619E-04   -0.47445E-05  5658   0.271E-02    0.450E-02
RMM:   7    -0.105092216527E+03    0.22818E-04   -0.28332E-05  4234   0.230E-02    0.188E-02
RMM:   8    -0.105092213131E+03    0.33958E-05   -0.12221E-05  3931   0.192E-02
  26 F= -.10509221E+03 E0= -.10500465E+03  d E =-.412186E-02
 curvature:  -3.82 expect dE=-0.418E-02 dE for cont linesearch -0.727E-05
 trial: gam= 0.37881 g(F)=  0.109E-02 g(S)=  0.000E+00 ort =-0.153E-03 (trialstep = 0.185E+01)
 search vector abs. value=  0.274E-02
 bond charge predicted
       N       E                     dE             d eps       ncg     rms          rms(c)
DAV:   1    -0.105093609042E+03   -0.13925E-02   -0.29222E-01  7700   0.155E+00    0.989E-02
RMM:   2    -0.105101888660E+03   -0.82796E-02   -0.53896E-03  7262   0.265E-01    0.775E-01
RMM:   3    -0.105094401924E+03    0.74867E-02   -0.98107E-04  7267   0.106E-01    0.142E-01
RMM:   4    -0.105094047408E+03    0.35452E-03   -0.31173E-04  7181   0.661E-02    0.804E-02
RMM:   5    -0.105093947317E+03    0.10009E-03   -0.79356E-05  6628   0.303E-02    0.384E-02
RMM:   6    -0.105093939881E+03    0.74356E-05   -0.53090E-05  6030   0.282E-02
  27 F= -.10509394E+03 E0= -.10500636E+03  d E =-.172675E-02
 ZBRENT: can't locate minimum, use default step
 trial-energy change:   -0.001727  1 .order   -0.001725   -0.001918   -0.001531
 step:   7.4033(harm=  9.1660)  dis= 0.01914  next Energy=  -105.096963 (dE=-0.475E-02)
 bond charge predicted
       N       E                     dE             d eps       ncg     rms          rms(c)
DAV:   1    -0.105093139552E+03    0.80776E-03   -0.26293E+00  7140   0.467E+00    0.295E-01
RMM:   2    -0.105158719517E+03   -0.65580E-01   -0.48367E-02  7214   0.798E-01    0.213E+00
RMM:   3    -0.105100036442E+03    0.58683E-01   -0.83002E-03  7257   0.316E-01    0.421E-01
RMM:   4    -0.105097134533E+03    0.29019E-02   -0.28219E-03  7191   0.195E-01    0.240E-01
RMM:   5    -0.105096376092E+03    0.75844E-03   -0.72829E-04  7259   0.884E-02    0.120E-01
RMM:   6    -0.105096304463E+03    0.71629E-04   -0.50089E-04  7141   0.803E-02    0.109E-01
RMM:   7    -0.105096129918E+03    0.17455E-03   -0.37619E-04  7154   0.662E-02    0.490E-02
RMM:   8    -0.105096101629E+03    0.28289E-04   -0.10032E-04  7099   0.357E-02    0.266E-02
RMM:   9    -0.105096089921E+03    0.11708E-04   -0.14885E-05  4064   0.157E-02    0.140E-02
RMM:  10    -0.105096087529E+03    0.23927E-05   -0.76006E-06  3899   0.158E-02
  28 F= -.10509609E+03 E0= -.10500828E+03  d E =-.387440E-02
 curvature: -11.39 expect dE=-0.107E-01 dE for cont linesearch -0.765E-05
 trial: gam= 0.68589 g(F)=  0.938E-03 g(S)=  0.000E+00 ort = 0.428E-04 (trialstep = 0.296E+01)
 search vector abs. value=  0.228E-02
 bond charge predicted
       N       E                     dE             d eps       ncg     rms          rms(c)
DAV:   1    -0.105096940608E+03   -0.85069E-03   -0.45277E-01  7770   0.183E+00    0.119E-01
RMM:   2    -0.105100415418E+03   -0.34748E-02   -0.64103E-03  7198   0.308E-01    0.491E-01
RMM:   3    -0.105097990075E+03    0.24253E-02   -0.10461E-03  8296   0.108E-01    0.197E-01
RMM:   4    -0.105097450294E+03    0.53978E-03   -0.37216E-04  7146   0.725E-02    0.836E-02
RMM:   5    -0.105097388578E+03    0.61716E-04   -0.10235E-04  7043   0.370E-02    0.627E-02
RMM:   6    -0.105097352660E+03    0.35918E-04   -0.76800E-05  6937   0.313E-02    0.424E-02
RMM:   7    -0.105097344671E+03    0.79887E-05   -0.82743E-05  7011   0.306E-02
  29 F= -.10509734E+03 E0= -.10500953E+03  d E =-.125714E-02
 trial-energy change:   -0.001257  1 .order   -0.001302   -0.002864    0.000260
 step:   2.6938(harm=  2.7146)  dis= 0.00797  next Energy=  -105.097356 (dE=-0.127E-02)
 bond charge predicted
       N       E                     dE             d eps       ncg     rms          rms(c)
DAV:   1    -0.105097343016E+03    0.96438E-05   -0.39463E-03  8365   0.176E-01    0.183E-02
RMM:   2    -0.105097761522E+03   -0.41851E-03   -0.11606E-04  7300   0.392E-02    0.175E-01
RMM:   3    -0.105097363251E+03    0.39827E-03   -0.37009E-05  5009   0.200E-02    0.311E-02
RMM:   4    -0.105097343586E+03    0.19665E-04   -0.15318E-05  4030   0.202E-02    0.115E-02
RMM:   5    -0.105097342547E+03    0.10394E-05   -0.44558E-06  3866   0.112E-02
  30 F= -.10509734E+03 E0= -.10500952E+03  d E =-.125502E-02
 curvature:  -3.18 expect dE=-0.235E-02 dE for cont linesearch -0.167E-06
 trial: gam= 0.86742 g(F)=  0.738E-03 g(S)=  0.000E+00 ort =-0.109E-04 (trialstep = 0.272E+01)
 search vector abs. value=  0.244E-02
 bond charge predicted
       N       E                     dE             d eps       ncg     rms          rms(c)
DAV:   1    -0.105097498210E+03   -0.15462E-03   -0.74323E-01  7140   0.246E+00    0.141E-01
RMM:   2    -0.105112856049E+03   -0.15358E-01   -0.15060E-02  7176   0.427E-01    0.103E+00
RMM:   3    -0.105099351551E+03    0.13504E-01   -0.20919E-03  7230   0.164E-01    0.197E-01
RMM:   4    -0.105098740474E+03    0.61108E-03   -0.65927E-04  7264   0.910E-02    0.122E-01
RMM:   5    -0.105098510143E+03    0.23033E-03   -0.15052E-04  7159   0.430E-02    0.532E-02
RMM:   6    -0.105098478728E+03    0.31415E-04   -0.90249E-05  7070   0.332E-02    0.470E-02
RMM:   7    -0.105098455764E+03    0.22964E-04   -0.10267E-04  7131   0.336E-02    0.299E-02
RMM:   8    -0.105098447371E+03    0.83936E-05   -0.35354E-05  4772   0.221E-02
  31 F= -.10509845E+03 E0= -.10501057E+03  d E =-.110482E-02
 trial-energy change:   -0.001105  1 .order   -0.001088   -0.001984   -0.000191
 step:   3.0145(harm=  3.0145)  dis= 0.00679  next Energy=  -105.098440 (dE=-0.110E-02)
 bond charge predicted
       N       E                     dE             d eps       ncg     rms          rms(c)
DAV:   1    -0.105098435954E+03    0.19810E-04   -0.82866E-03  7980   0.263E-01    0.169E-02
RMM:   2    -0.105098456698E+03   -0.20744E-04   -0.18130E-04  7032   0.523E-02    0.235E-02
RMM:   3    -0.105098464411E+03   -0.77129E-05   -0.19650E-05  4000   0.178E-02
  32 F= -.10509846E+03 E0= -.10501058E+03  d E =-.112186E-02
 curvature:  -5.04 expect dE=-0.905E-03 dE for cont linesearch -0.132E-04
 trial: gam= 0.23719 g(F)=  0.179E-03 g(S)=  0.000E+00 ort =-0.798E-04 (trialstep = 0.278E+01)
 search vector abs. value=  0.279E-03
 bond charge predicted
       N       E                     dE             d eps       ncg     rms          rms(c)
DAV:   1    -0.105098779959E+03   -0.32326E-03   -0.91411E-02  7140   0.860E-01    0.538E-02
RMM:   2    -0.105104689489E+03   -0.59095E-02   -0.23487E-03  7283   0.163E-01    0.656E-01
RMM:   3    -0.105099070511E+03    0.56190E-02   -0.55163E-04  7262   0.829E-02    0.583E-02
RMM:   4    -0.105098925404E+03    0.14511E-03   -0.11608E-04  7129   0.392E-02    0.398E-02
RMM:   5    -0.105098906280E+03    0.19124E-04   -0.20096E-05  4214   0.166E-02    0.252E-02
RMM:   6    -0.105098902216E+03    0.40637E-05   -0.15830E-05  4003   0.212E-02
  33 F= -.10509890E+03 E0= -.10501089E+03  d E =-.437805E-03
 ZBRENT: can't locate minimum, use default step
 trial-energy change:   -0.000438  1 .order   -0.000403   -0.000446   -0.000359
 step:  11.1301(harm= 14.2727)  dis= 0.00774  next Energy=  -105.099610 (dE=-0.115E-02)
 bond charge predicted
       N       E                     dE             d eps       ncg     rms          rms(c)
DAV:   1    -0.105098497811E+03    0.40847E-03   -0.81658E-01  7875   0.257E+00    0.112E-01
RMM:   2    -0.105101033955E+03   -0.25361E-02   -0.12454E-02  7159   0.410E-01    0.324E-01
RMM:   3    -0.105100217116E+03    0.81684E-03   -0.11819E-03  8487   0.132E-01    0.200E-01
RMM:   4    -0.105099784478E+03    0.43264E-03   -0.32743E-04  7172   0.669E-02    0.924E-02
RMM:   5    -0.105099672209E+03    0.11227E-03   -0.83543E-05  7077   0.347E-02    0.494E-02
RMM:   6    -0.105099695837E+03   -0.23628E-04   -0.10236E-04  7077   0.347E-02    0.634E-02
RMM:   7    -0.105099656348E+03    0.39490E-04   -0.91163E-05  7095   0.309E-02    0.365E-02
RMM:   8    -0.105099636551E+03    0.19797E-04   -0.20958E-05  4127   0.174E-02    0.119E-02
RMM:   9    -0.105099634161E+03    0.23896E-05   -0.68747E-06  3927   0.152E-02
  34 F= -.10509963E+03 E0= -.10501147E+03  d E =-.116975E-02
 curvature: -11.46 expect dE=-0.241E-02 dE for cont linesearch -0.811E-05
 trial: gam= 0.99735 g(F)=  0.211E-03 g(S)=  0.000E+00 ort = 0.140E-04 (trialstep = 0.241E+01)
 search vector abs. value=  0.516E-03
 bond charge predicted
       N       E                     dE             d eps       ncg     rms          rms(c)
DAV:   1    -0.105100005819E+03   -0.36927E-03   -0.92790E-02  8505   0.863E-01    0.486E-02
RMM:   2    -0.105100233291E+03   -0.22747E-03   -0.13629E-03  7146   0.133E-01    0.980E-02
RMM:   3    -0.105100454194E+03   -0.22090E-03   -0.17817E-04  7617   0.480E-02    0.157E-01
RMM:   4    -0.105100153696E+03    0.30050E-03   -0.76354E-05  6711   0.315E-02    0.477E-02
RMM:   5    -0.105100118651E+03    0.35045E-04   -0.18972E-05  4110   0.185E-02    0.226E-02
RMM:   6    -0.105100113766E+03    0.48846E-05   -0.11895E-05  3866   0.189E-02
  35 F= -.10510011E+03 E0= -.10501194E+03  d E =-.479605E-03
 trial-energy change:   -0.000480  1 .order   -0.000433   -0.000540   -0.000325
 step:   3.6292(harm=  6.0465)  dis= 0.00423  next Energy=  -105.100203 (dE=-0.569E-03)
 bond charge predicted
       N       E                     dE             d eps       ncg     rms          rms(c)
DAV:   1    -0.105100238363E+03   -0.11971E-03   -0.24078E-02  8085   0.442E-01    0.290E-02
RMM:   2    -0.105100392694E+03   -0.15433E-03   -0.39818E-04  7144   0.703E-02    0.950E-02
RMM:   3    -0.105100353499E+03    0.39195E-04   -0.54642E-05  5798   0.281E-02    0.799E-02
RMM:   4    -0.105100271434E+03    0.82065E-04   -0.29022E-05  4430   0.244E-02    0.197E-02
RMM:   5    -0.105100267141E+03    0.42921E-05   -0.82759E-06  3878   0.168E-02
  36 F= -.10510027E+03 E0= -.10501210E+03  d E =-.632980E-03
 curvature:  -3.88 expect dE=-0.990E-03 dE for cont linesearch -0.427E-04
 trial: gam= 0.00000 g(F)=  0.255E-03 g(S)=  0.000E+00 ort = 0.753E-04 (trialstep = 0.265E+01)
 search vector abs. value=  0.255E-03
 bond charge predicted
       N       E                     dE             d eps       ncg     rms          rms(c)
DAV:   1    -0.105100521933E+03   -0.25050E-03   -0.68932E-02  7525   0.749E-01    0.757E-02
RMM:   2    -0.105106896529E+03   -0.63746E-02   -0.23916E-03  7415   0.147E-01    0.688E-01
RMM:   3    -0.105100815391E+03    0.60811E-02   -0.67761E-04  7308   0.818E-02    0.955E-02
RMM:   4    -0.105100599950E+03    0.21544E-03   -0.17688E-04  7197   0.467E-02    0.582E-02
RMM:   5    -0.105100549841E+03    0.50109E-04   -0.30712E-05  4591   0.221E-02    0.229E-02
RMM:   6    -0.105100549743E+03    0.98245E-07   -0.14984E-05  3990   0.199E-02
  37 F= -.10510055E+03 E0= -.10501239E+03  d E =-.282602E-03
 trial-energy change:   -0.000283  1 .order   -0.000271   -0.000676    0.000134
 step:   2.2114(harm=  2.2114)  dis= 0.00169  next Energy=  -105.100549 (dE=-0.282E-03)
 bond charge predicted
       N       E                     dE             d eps       ncg     rms          rms(c)
DAV:   1    -0.105100555446E+03   -0.56042E-05   -0.19893E-03  8855   0.132E-01    0.159E-02
RMM:   2    -0.105100609061E+03   -0.53616E-04   -0.77579E-05  5897   0.313E-02    0.641E-02
RMM:   3    -0.105100616561E+03   -0.74994E-05   -0.17222E-05  4153   0.180E-02
  38 F= -.10510062E+03 E0= -.10501256E+03  d E =-.349420E-03
 curvature:  -1.11 expect dE=-0.242E-03 dE for cont linesearch -0.432E-06
 trial: gam= 0.89784 g(F)=  0.219E-03 g(S)=  0.000E+00 ort =-0.998E-05 (trialstep = 0.161E+01)
 search vector abs. value=  0.407E-03
 bond charge predicted
       N       E                     dE             d eps       ncg     rms          rms(c)
DAV:   1    -0.105100792491E+03   -0.18343E-03   -0.35626E-02  8680   0.513E-01    0.230E-02
RMM:   2    -0.105100926888E+03   -0.13440E-03   -0.49827E-04  7141   0.911E-02    0.856E-02
RMM:   3    -0.105100949762E+03   -0.22874E-04   -0.79170E-05  6722   0.287E-02    0.898E-02
RMM:   4    -0.105100836029E+03    0.11373E-03   -0.17934E-05  4048   0.206E-02    0.145E-02
RMM:   5    -0.105100831488E+03    0.45406E-05   -0.69335E-06  3872   0.138E-02
  39 F= -.10510083E+03 E0= -.10501271E+03  d E =-.214927E-03
 trial-energy change:   -0.000215  1 .order   -0.000265   -0.000338   -0.000193
 step:   3.7628(harm=  3.7628)  dis= 0.00367  next Energy=  -105.101012 (dE=-0.395E-03)
 bond charge predicted
       N       E                     dE             d eps       ncg     rms          rms(c)
DAV:   1    -0.105100962523E+03   -0.12649E-03   -0.63945E-02  7630   0.684E-01    0.268E-02
RMM:   2    -0.105101189087E+03   -0.22656E-03   -0.78409E-04  7141   0.108E-01    0.110E-01
RMM:   3    -0.105101065870E+03    0.12322E-03   -0.88322E-05  6916   0.364E-02    0.419E-02
RMM:   4    -0.105101045679E+03    0.20191E-04   -0.18038E-05  4063   0.187E-02    0.258E-02
RMM:   5    -0.105101037789E+03    0.78903E-05   -0.88112E-06  3914   0.171E-02
  40 F= -.10510104E+03 E0= -.10501297E+03  d E =-.421228E-03
 curvature:  -3.64 expect dE=-0.408E-03 dE for cont linesearch -0.112E-04
 trial: gam= 0.15353 g(F)=  0.112E-03 g(S)=  0.000E+00 ort = 0.353E-04 (trialstep = 0.204E+01)
 search vector abs. value=  0.132E-03
 bond charge predicted
       N       E                     dE             d eps       ncg     rms          rms(c)
DAV:   1    -0.105101216229E+03   -0.17055E-03   -0.11869E-02  8645   0.306E-01    0.353E-02
RMM:   2    -0.105102160365E+03   -0.94414E-03   -0.41308E-04  7397   0.625E-02    0.270E-01
RMM:   3    -0.105101328664E+03    0.83170E-03   -0.12292E-04  7145   0.349E-02    0.752E-02
RMM:   4    -0.105101229831E+03    0.98832E-04   -0.47177E-05  5413   0.272E-02    0.265E-02
RMM:   5    -0.105101219978E+03    0.98538E-05   -0.10983E-05  3914   0.167E-02
  41 F= -.10510122E+03 E0= -.10501315E+03  d E =-.182189E-03
 trial-energy change:   -0.000182  1 .order   -0.000178   -0.000239   -0.000118
 step:   4.0040(harm=  4.0040)  dis= 0.00256  next Energy=  -105.101273 (dE=-0.235E-03)
 bond charge predicted
       N       E                     dE             d eps       ncg     rms          rms(c)
DAV:   1    -0.105101284479E+03   -0.54647E-04   -0.11193E-02  8260   0.297E-01    0.343E-02
RMM:   2    -0.105102031776E+03   -0.74730E-03   -0.36640E-04  7439   0.562E-02    0.238E-01
RMM:   3    -0.105101363497E+03    0.66828E-03   -0.10200E-04  6976   0.336E-02    0.644E-02
RMM:   4    -0.105101297985E+03    0.65512E-04   -0.44219E-05  5358   0.274E-02    0.289E-02
RMM:   5    -0.105101286962E+03    0.11024E-04   -0.10983E-05  3920   0.173E-02    0.128E-02
RMM:   6    -0.105101286574E+03    0.38789E-06   -0.49467E-06  3841   0.114E-02
  42 F= -.10510129E+03 E0= -.10501322E+03  d E =-.248786E-03
 curvature:  -2.26 expect dE=-0.527E-03 dE for cont linesearch -0.161E-06
 trial: gam= 2.12961 g(F)=  0.233E-03 g(S)=  0.000E+00 ort = 0.307E-05 (trialstep = 0.380E+00)
 search vector abs. value=  0.847E-03
 bond charge predicted
       N       E                     dE             d eps       ncg     rms          rms(c)
DAV:   1    -0.105101375250E+03   -0.88288E-04   -0.21476E-03  8750   0.130E-01    0.986E-03
RMM:   2    -0.105101384797E+03   -0.95471E-05   -0.37758E-05  4510   0.231E-02
  43 F= -.10510138E+03 E0= -.10501336E+03  d E =-.982230E-04
 ZBRENT: can't locate minimum, use default step
 trial-energy change:   -0.000098  1 .order   -0.000086   -0.000091   -0.000080
 step:   1.5203(harm=  3.1780)  dis= 0.00277  next Energy=  -105.101668 (dE=-0.381E-03)
 bond charge predicted
       N       E                     dE             d eps       ncg     rms          rms(c)
DAV:   1    -0.105101606619E+03   -0.23137E-03   -0.19377E-02  8225   0.385E-01    0.409E-02
RMM:   2    -0.105107807421E+03   -0.62008E-02   -0.10862E-03  7441   0.919E-02    0.673E-01
RMM:   3    -0.105101746069E+03    0.60614E-02   -0.52651E-04  7301   0.671E-02    0.245E-02
RMM:   4    -0.105101629335E+03    0.11673E-03   -0.61908E-05  5867   0.332E-02    0.259E-02
RMM:   5    -0.105101621827E+03    0.75085E-05   -0.14600E-05  4084   0.177E-02
  44 F= -.10510162E+03 E0= -.10501350E+03  d E =-.335253E-03
 curvature:  -3.64 expect dE=-0.577E-03 dE for cont linesearch -0.124E-03
 ZBRENT: increasing intervall
 opt :   3.8006  next Energy=  -105.101914 (dE=-0.628E-03)
 bond charge predicted
       N       E                     dE             d eps       ncg     rms          rms(c)
DAV:   1    -0.105101813356E+03   -0.18402E-03   -0.75546E-02  7630   0.762E-01    0.490E-02
RMM:   2    -0.105102230840E+03   -0.41748E-03   -0.12871E-03  7159   0.133E-01    0.151E-01
RMM:   3    -0.105102070067E+03    0.16077E-03   -0.15378E-04  7632   0.448E-02    0.103E-01
RMM:   4    -0.105101953663E+03    0.11640E-03   -0.71406E-05  6572   0.329E-02    0.457E-02
RMM:   5    -0.105101933512E+03    0.20151E-04   -0.20743E-05  4087   0.195E-02    0.296E-02
RMM:   6    -0.105101924737E+03    0.87757E-05   -0.16164E-05  3947   0.224E-02
  45 F= -.10510192E+03 E0= -.10501378E+03  d E =-.638163E-03
 curvature:  -8.59 expect dE=-0.138E-02 dE for cont linesearch -0.510E-04
 trial: gam= 0.31868 g(F)=  0.161E-03 g(S)=  0.000E+00 ort = 0.709E-04 (trialstep = 0.106E+01)
 search vector abs. value=  0.292E-03
 bond charge predicted
       N       E                     dE             d eps       ncg     rms          rms(c)
DAV:   1    -0.105102095603E+03   -0.16209E-03   -0.83460E-03  7805   0.255E-01    0.234E-02
RMM:   2    -0.105102373581E+03   -0.27798E-03   -0.23044E-04  7230   0.519E-02    0.142E-01
RMM:   3    -0.105102163683E+03    0.20990E-03   -0.41201E-05  5245   0.234E-02    0.628E-02
RMM:   4    -0.105102105240E+03    0.58443E-04   -0.25742E-05  4236   0.245E-02    0.135E-02
RMM:   5    -0.105102103907E+03    0.13325E-05   -0.76240E-06  3890   0.141E-02
  46 F= -.10510210E+03 E0= -.10501396E+03  d E =-.179171E-03
 ZBRENT: can't locate minimum, use default step
 trial-energy change:   -0.000179  1 .order   -0.000174   -0.000195   -0.000153
 step:   4.2567(harm=  4.9421)  dis= 0.00454  next Energy=  -105.102378 (dE=-0.453E-03)
 bond charge predicted
       N       E                     dE             d eps       ncg     rms          rms(c)
DAV:   1    -0.105102361169E+03   -0.25593E-03   -0.75584E-02  8610   0.758E-01    0.550E-02
RMM:   2    -0.105104376284E+03   -0.20151E-02   -0.14965E-03  7317   0.127E-01    0.383E-01
RMM:   3    -0.105102570654E+03    0.18056E-02   -0.26073E-04  7268   0.564E-02    0.796E-02
RMM:   4    -0.105102477159E+03    0.93496E-04   -0.95011E-05  6920   0.365E-02    0.505E-02
RMM:   5    -0.105102443190E+03    0.33968E-04   -0.19870E-05  4139   0.191E-02    0.199E-02
RMM:   6    -0.105102440822E+03    0.23683E-05   -0.16559E-05  3991   0.199E-02
  47 F= -.10510244E+03 E0= -.10501427E+03  d E =-.516085E-03
 curvature:  -3.81 expect dE=-0.744E-03 dE for cont linesearch -0.356E-04
 trial: gam= 0.00000 g(F)=  0.195E-03 g(S)=  0.000E+00 ort = 0.522E-04 (trialstep = 0.170E+01)
 search vector abs. value=  0.195E-03
 bond charge predicted
       N       E                     dE             d eps       ncg     rms          rms(c)
DAV:   1    -0.105102622785E+03   -0.17959E-03   -0.14225E-02  8715   0.333E-01    0.544E-02
RMM:   2    -0.105104995292E+03   -0.23725E-02   -0.77959E-04  7636   0.744E-02    0.431E-01
RMM:   3    -0.105102783942E+03    0.22114E-02   -0.29015E-04  7337   0.510E-02    0.912E-02
RMM:   4    -0.105102634521E+03    0.14942E-03   -0.10207E-04  6919   0.366E-02    0.475E-02
RMM:   5    -0.105102597708E+03    0.36813E-04   -0.18652E-05  4124   0.173E-02    0.136E-02
RMM:   6    -0.105102596388E+03    0.13200E-05   -0.90414E-06  3918   0.167E-02
  48 F= -.10510260E+03 E0= -.10501445E+03  d E =-.155566E-03
 trial-energy change:   -0.000156  1 .order   -0.000153   -0.000332    0.000026
 step:   1.5804(harm=  1.5804)  dis= 0.00147  next Energy=  -105.102595 (dE=-0.154E-03)
 bond charge predicted
       N       E                     dE             d eps       ncg     rms          rms(c)
DAV:   1    -0.105102597386E+03    0.32216E-06   -0.11050E-04  8890   0.377E-02    0.868E-03
RMM:   2    -0.105102660472E+03   -0.63087E-04   -0.18378E-05  4187   0.169E-02    0.678E-02
RMM:   3    -0.105102606839E+03    0.53633E-04   -0.74392E-06  3951   0.153E-02    0.248E-02
RMM:   4    -0.105102596956E+03    0.98832E-05   -0.30486E-06  3865   0.797E-03
  49 F= -.10510260E+03 E0= -.10501445E+03  d E =-.156134E-03
 curvature:  -0.79 expect dE=-0.508E-04 dE for cont linesearch -0.803E-07
 trial: gam= 0.35252 g(F)=  0.644E-04 g(S)=  0.000E+00 ort =-0.445E-05 (trialstep = 0.168E+01)
 search vector abs. value=  0.855E-04
 bond charge predicted
       N       E                     dE             d eps       ncg     rms          rms(c)
DAV:   1    -0.105102697484E+03   -0.90644E-04   -0.37709E-03  8190   0.170E-01    0.112E-02
RMM:   2    -0.105102721495E+03   -0.24011E-04   -0.57015E-05  5255   0.286E-02    0.379E-02
RMM:   3    -0.105102705598E+03    0.15896E-04   -0.69772E-06  3920   0.136E-02    0.165E-02
RMM:   4    -0.105102703190E+03    0.24084E-05   -0.38735E-06  3874   0.972E-03
  50 F= -.10510270E+03 E0= -.10501456E+03  d E =-.106234E-03
 ZBRENT: can't locate minimum, use default step
 trial-energy change:   -0.000106  1 .order   -0.000101   -0.000105   -0.000096
 step:   6.7129(harm= 19.7297)  dis= 0.00461  next Energy=  -105.103216 (dE=-0.619E-03)
 bond charge predicted
       N       E                     dE             d eps       ncg     rms          rms(c)
DAV:   1    -0.105102951837E+03   -0.24624E-03   -0.34137E-02  8575   0.512E-01    0.358E-02
RMM:   2    -0.105103166775E+03   -0.21494E-03   -0.54544E-04  7147   0.845E-02    0.114E-01
RMM:   3    -0.105103062337E+03    0.10444E-03   -0.58725E-05  5993   0.293E-02    0.677E-02
RMM:   4    -0.105103013863E+03    0.48474E-04   -0.33124E-05  4739   0.249E-02    0.338E-02
RMM:   5    -0.105103002565E+03    0.11298E-04   -0.14610E-05  3942   0.204E-02    0.195E-02
RMM:   6    -0.105102998349E+03    0.42163E-05   -0.73153E-06  3844   0.148E-02
  51 F= -.10510300E+03 E0= -.10501481E+03  d E =-.401393E-03
 curvature:  -6.45 expect dE=-0.518E-03 dE for cont linesearch -0.199E-03
 ZBRENT: increasing intervall
 opt :  16.7823  next Energy=  -105.103454 (dE=-0.857E-03)
 bond charge predicted
       N       E                     dE             d eps       ncg     rms          rms(c)
DAV:   1    -0.105103285845E+03   -0.28328E-03   -0.13593E-01  7245   0.102E+00    0.665E-02
RMM:   2    -0.105103930448E+03   -0.64460E-03   -0.22470E-03  7146   0.169E-01    0.184E-01
RMM:   3    -0.105103668616E+03    0.26183E-03   -0.23542E-04  7592   0.602E-02    0.115E-01
RMM:   4    -0.105103533802E+03    0.13481E-03   -0.12272E-04  7114   0.421E-02    0.547E-02
RMM:   5    -0.105103502580E+03    0.31222E-04   -0.28271E-05  4383   0.227E-02    0.325E-02
RMM:   6    -0.105103497514E+03    0.50657E-05   -0.22008E-05  4091   0.244E-02
  52 F= -.10510350E+03 E0= -.10501525E+03  d E =-.900558E-03
 curvature: -14.77 expect dE=-0.218E-02 dE for cont linesearch -0.261E-03
 ZBRENT: increasing intervall
 opt :  36.9211  next Energy=  -105.104028 (dE=-0.143E-02)
 bond charge predicted
       N       E                     dE             d eps       ncg     rms          rms(c)
DAV:   1    -0.105103389050E+03    0.11353E-03   -0.54284E-01  7560   0.204E+00    0.132E-01
RMM:   2    -0.105105857338E+03   -0.24683E-02   -0.87442E-03  7162   0.339E-01    0.354E-01
RMM:   3    -0.105104805400E+03    0.10519E-02   -0.93169E-04  8056   0.116E-01    0.214E-01
RMM:   4    -0.105104378862E+03    0.42654E-03   -0.46537E-04  7140   0.824E-02    0.110E-01
RMM:   5    -0.105104225994E+03    0.15287E-03   -0.13612E-04  7137   0.465E-02    0.457E-02
RMM:   6    -0.105104246115E+03   -0.20122E-04   -0.94411E-05  7028   0.361E-02    0.499E-02
RMM:   7    -0.105104239340E+03    0.67754E-05   -0.57812E-05  6034   0.274E-02
  53 F= -.10510424E+03 E0= -.10501591E+03  d E =-.164238E-02
 curvature: -30.05 expect dE=-0.128E-01 dE for cont linesearch -0.150E-03
 ZBRENT: increasing intervall
 opt :  77.1986  next Energy=  -105.104341 (dE=-0.174E-02)
 bond charge predicted
       N       E                     dE             d eps       ncg     rms          rms(c)
DAV:   1    -0.105100762810E+03    0.34833E-02   -0.21619E+00  7140   0.408E+00    0.261E-01
RMM:   2    -0.105108567757E+03   -0.78049E-02   -0.35625E-02  7145   0.701E-01    0.589E-01
RMM:   3    -0.105107213537E+03    0.13542E-02   -0.39442E-03  8476   0.233E-01    0.490E-01
RMM:   4    -0.105104629902E+03    0.25836E-02   -0.16841E-03  7147   0.153E-01    0.182E-01
RMM:   5    -0.105104308968E+03    0.32093E-03   -0.43903E-04  7141   0.809E-02    0.130E-01
RMM:   6    -0.105104207199E+03    0.10177E-03   -0.33075E-04  7143   0.672E-02    0.952E-02
RMM:   7    -0.105104161444E+03    0.45755E-04   -0.22455E-04  7173   0.501E-02    0.631E-02
RMM:   8    -0.105104109013E+03    0.52431E-04   -0.75845E-05  6791   0.296E-02    0.231E-02
RMM:   9    -0.105104103441E+03    0.55719E-05   -0.10788E-05  4067   0.126E-02
  54 F= -.10510410E+03 E0= -.10501570E+03  d E =-.150648E-02
 curvature: -20.29 expect dE=-0.339E-01 dE for cont linesearch -0.173E-03
 ZBRENT: bracketing found
 ZBRENT: interpolating
 opt :  54.3961  next Energy=  -105.104420 (dE=-0.182E-02)
 bond charge predicted
       N       E                     dE             d eps       ncg     rms          rms(c)
DAV:   1    -0.105103470042E+03    0.63897E-03   -0.69510E-01  8645   0.231E+00    0.145E-01
RMM:   2    -0.105107274231E+03   -0.38042E-02   -0.10390E-02  7177   0.368E-01    0.468E-01
RMM:   3    -0.105105068098E+03    0.22061E-02   -0.10861E-03  7962   0.120E-01    0.213E-01
RMM:   4    -0.105104583106E+03    0.48499E-03   -0.51245E-04  7142   0.860E-02    0.107E-01
RMM:   5    -0.105104489818E+03    0.93288E-04   -0.15472E-04  7137   0.478E-02    0.774E-02
RMM:   6    -0.105104434431E+03    0.55387E-04   -0.11437E-04  7086   0.397E-02    0.450E-02
RMM:   7    -0.105104432847E+03    0.15839E-05   -0.62784E-05  6477   0.279E-02
  55 F= -.10510443E+03 E0= -.10501611E+03  d E =-.183589E-02
 curvature: -21.20 expect dE=-0.180E-01 dE for cont linesearch -0.481E-05
 trial: gam=12.30585 g(F)=  0.847E-03 g(S)=  0.000E+00 ort =-0.440E-05 (trialstep = 0.763E-01)
 search vector abs. value=  0.137E-01
 bond charge predicted
       N       E                     dE             d eps       ncg     rms          rms(c)
DAV:   1    -0.105104472260E+03   -0.37829E-04   -0.13046E-03  8715   0.115E-01    0.120E-02
RMM:   2    -0.105104485802E+03   -0.13542E-04   -0.40089E-05  4518   0.255E-02    0.311E-02
RMM:   3    -0.105104503849E+03   -0.18047E-04   -0.10903E-05  3944   0.180E-02    0.491E-02
RMM:   4    -0.105104472714E+03    0.31135E-04   -0.43198E-06  3890   0.895E-03    0.810E-03
RMM:   5    -0.105104471438E+03    0.12755E-05   -0.16149E-06  3856   0.724E-03
  56 F= -.10510447E+03 E0= -.10501612E+03  d E =-.385915E-04
 ZBRENT: can't locate minimum, use default step
 trial-energy change:   -0.000039  1 .order   -0.000059   -0.000061   -0.000058
 step:   0.3054(harm=  2.0791)  dis= 0.00275  next Energy=  -105.105257 (dE=-0.824E-03)
 bond charge predicted
       N       E                     dE             d eps       ncg     rms          rms(c)
DAV:   1    -0.105104642853E+03   -0.17014E-03   -0.96103E-03  8365   0.275E-01    0.213E-02
RMM:   2    -0.105104777324E+03   -0.13447E-03   -0.17074E-04  6869   0.455E-02    0.958E-02
RMM:   3    -0.105104666087E+03    0.11124E-03   -0.17893E-05  4115   0.170E-02    0.272E-02
RMM:   4    -0.105104656899E+03    0.91879E-05   -0.11028E-05  3945   0.176E-02
  57 F= -.10510466E+03 E0= -.10501630E+03  d E =-.224052E-03
 curvature:  -3.87 expect dE=-0.302E-02 dE for cont linesearch -0.160E-03
 ZBRENT: increasing intervall
 opt :   0.7635  next Energy=  -105.104997 (dE=-0.564E-03)
 bond charge predicted
       N       E                     dE             d eps       ncg     rms          rms(c)
DAV:   1    -0.105104964927E+03   -0.29884E-03   -0.38410E-02  8505   0.550E-01    0.461E-02
RMM:   2    -0.105105550266E+03   -0.58534E-03   -0.73862E-04  7236   0.962E-02    0.203E-01
RMM:   3    -0.105105107362E+03    0.44290E-03   -0.10409E-04  7045   0.357E-02    0.741E-02
RMM:   4    -0.105105045826E+03    0.61537E-04   -0.53875E-05  5808   0.274E-02    0.440E-02
RMM:   5    -0.105105022019E+03    0.23807E-04   -0.19229E-05  4068   0.214E-02    0.207E-02
RMM:   6    -0.105105019751E+03    0.22684E-05   -0.12368E-05  3952   0.193E-02
  58 F= -.10510502E+03 E0= -.10501662E+03  d E =-.586904E-03
 curvature:  -8.20 expect dE=-0.614E-02 dE for cont linesearch -0.322E-03
 ZBRENT: increasing intervall
 opt :   1.6797  next Energy=  -105.105673 (dE=-0.124E-02)
 bond charge predicted
       N       E                     dE             d eps       ncg     rms          rms(c)
DAV:   1    -0.105105479177E+03   -0.45716E-03   -0.15303E-01  7490   0.110E+00    0.849E-02
RMM:   2    -0.105107683162E+03   -0.22040E-02   -0.28957E-03  7190   0.181E-01    0.388E-01
RMM:   3    -0.105105932514E+03    0.17506E-02   -0.38168E-04  7253   0.712E-02    0.117E-01
RMM:   4    -0.105105791060E+03    0.14145E-03   -0.18914E-04  7154   0.504E-02    0.767E-02
RMM:   5    -0.105105725639E+03    0.65421E-04   -0.55132E-05  5960   0.287E-02    0.416E-02
RMM:   6    -0.105105708626E+03    0.17013E-04   -0.33518E-05  4658   0.269E-02    0.234E-02
RMM:   7    -0.105105708180E+03    0.44562E-06   -0.18875E-05  4118   0.219E-02
  59 F= -.10510571E+03 E0= -.10501725E+03  d E =-.127533E-02
 curvature: -16.64 expect dE=-0.123E-01 dE for cont linesearch -0.562E-03
 ZBRENT: increasing intervall
 opt :   3.5120  next Energy=  -105.106856 (dE=-0.242E-02)
 bond charge predicted
       N       E                     dE             d eps       ncg     rms          rms(c)
DAV:   1    -0.105105978336E+03   -0.26971E-03   -0.61060E-01  7140   0.219E+00    0.169E-01
RMM:   2    -0.105114725550E+03   -0.87472E-02   -0.11767E-02  7175   0.376E-01    0.768E-01
RMM:   3    -0.105107774829E+03    0.69507E-02   -0.15148E-03  7325   0.141E-01    0.231E-01
RMM:   4    -0.105107213223E+03    0.56161E-03   -0.75144E-04  7157   0.992E-02    0.148E-01
RMM:   5    -0.105106996920E+03    0.21630E-03   -0.22736E-04  7144   0.566E-02    0.860E-02
RMM:   6    -0.105106918093E+03    0.78828E-04   -0.14275E-04  7124   0.456E-02    0.435E-02
RMM:   7    -0.105106911945E+03    0.61480E-05   -0.73336E-05  6721   0.306E-02
  60 F= -.10510691E+03 E0= -.10501831E+03  d E =-.247910E-02
 curvature: -34.00 expect dE=-0.359E-01 dE for cont linesearch -0.654E-03
 ZBRENT: increasing intervall
 opt :   7.1767  next Energy=  -105.108180 (dE=-0.375E-02)
 bond charge predicted
       N       E                     dE             d eps       ncg     rms          rms(c)
DAV:   1    -0.105104935334E+03    0.19828E-02   -0.24340E+00  8890   0.437E+00    0.332E-01
RMM:   2    -0.105133894526E+03   -0.28959E-01   -0.42405E-02  7251   0.711E-01    0.138E+00
RMM:   3    -0.105111584512E+03    0.22310E-01   -0.53336E-03  7322   0.262E-01    0.460E-01
RMM:   4    -0.105109614190E+03    0.19703E-02   -0.28244E-03  7159   0.193E-01    0.296E-01
RMM:   5    -0.105108734397E+03    0.87979E-03   -0.91130E-04  7143   0.113E-01    0.173E-01
RMM:   6    -0.105108398320E+03    0.33608E-03   -0.56402E-04  7140   0.917E-02    0.815E-02
RMM:   7    -0.105108368521E+03    0.29799E-04   -0.22966E-04  7131   0.535E-02    0.506E-02
RMM:   8    -0.105108361740E+03    0.67809E-05   -0.91624E-05  6958   0.345E-02
  61 F= -.10510836E+03 E0= -.10501963E+03  d E =-.392889E-02
 curvature: -65.95 expect dE=-0.164E+00 dE for cont linesearch -0.388E-03
 ZBRENT: increasing intervall
 opt :  14.5061  next Energy=  -105.108761 (dE=-0.433E-02)
 bond charge predicted
       N       E                     dE             d eps       ncg     rms          rms(c)
DAV:   1    -0.105095402886E+03    0.12966E-01   -0.96255E+00  7140   0.871E+00    0.657E-01
RMM:   2    -0.105197144538E+03   -0.10174E+00   -0.17835E-01  7159   0.156E+00    0.250E+00
RMM:   3    -0.105121830858E+03    0.75314E-01   -0.21953E-02  7682   0.529E-01    0.886E-01
RMM:   4    -0.105114812985E+03    0.70179E-02   -0.11017E-02  7151   0.384E-01    0.575E-01
RMM:   5    -0.105111763339E+03    0.30496E-02   -0.33916E-03  7145   0.222E-01    0.346E-01
RMM:   6    -0.105110739245E+03    0.10241E-02   -0.21990E-03  7141   0.177E-01    0.201E-01
RMM:   7    -0.105110691533E+03    0.47711E-04   -0.13166E-03  7140   0.130E-01    0.165E-01
RMM:   8    -0.105110377252E+03    0.31428E-03   -0.55227E-04  7140   0.874E-02    0.749E-02
RMM:   9    -0.105110331678E+03    0.45573E-04   -0.88770E-05  6967   0.329E-02    0.424E-02
RMM:  10    -0.105110332947E+03   -0.12687E-05   -0.20837E-05  4287   0.179E-02
  62 F= -.10511033E+03 E0= -.10502118E+03  d E =-.590010E-02
 curvature: -67.94 expect dE=-0.358E+00 dE for cont linesearch -0.211E-03
 ZBRENT: increasing intervall
 opt :  29.1650  next Energy=  -105.112212 (dE=-0.778E-02)
 bond charge predicted
       N       E                     dE             d eps       ncg     rms          rms(c)
DAV:   1    -0.105048877663E+03    0.61454E-01   -0.37535E+01  7140   0.173E+01    0.129E+00
RMM:   2    -0.105333349342E+03   -0.28447E+00   -0.70437E-01  7147   0.344E+00    0.391E+00
RMM:   3    -0.105156915902E+03    0.17643E+00   -0.96074E-02  8883   0.100E+00    0.184E+00
RMM:   4    -0.105126744923E+03    0.30171E-01   -0.40787E-02  7142   0.762E-01    0.108E+00
RMM:   5    -0.105116690978E+03    0.10054E-01   -0.12225E-02  7144   0.434E-01    0.705E-01
RMM:   6    -0.105113193977E+03    0.34970E-02   -0.90876E-03  7141   0.358E-01    0.453E-01
RMM:   7    -0.105112594783E+03    0.59919E-03   -0.55876E-03  7143   0.262E-01    0.346E-01
RMM:   8    -0.105111120380E+03    0.14744E-02   -0.21142E-03  7143   0.168E-01    0.151E-01
RMM:   9    -0.105110989569E+03    0.13081E-03   -0.38439E-04  7226   0.676E-02    0.971E-02
RMM:  10    -0.105110970141E+03    0.19428E-04   -0.10815E-04  7128   0.368E-02    0.599E-02
RMM:  11    -0.105111006593E+03   -0.36452E-04   -0.69004E-05  6498   0.288E-02    0.317E-02
RMM:  12    -0.105111050158E+03   -0.43565E-04   -0.37875E-05  4808   0.228E-02    0.197E-02
RMM:  13    -0.105111117401E+03   -0.67243E-04   -0.36772E-05  4821   0.217E-02    0.177E-02
RMM:  14    -0.105111134814E+03   -0.17412E-04   -0.83119E-06  4168   0.116E-02    0.177E-02
RMM:  15    -0.105111155260E+03   -0.20446E-04   -0.62660E-06  4160   0.895E-03    0.172E-02
RMM:  16    -0.105111167900E+03   -0.12640E-04   -0.39518E-06  4100   0.677E-03    0.156E-02
RMM:  17    -0.105111188828E+03   -0.20929E-04   -0.12528E-05  4352   0.832E-03    0.919E-03
RMM:  18    -0.105111193397E+03   -0.45682E-05   -0.32051E-06  3682   0.497E-03
  63 F= -.10511119E+03 E0= -.10502161E+03  d E =-.676055E-02
 curvature: ****** expect dE=-0.236E+01 dE for cont linesearch -0.257E-02
 ZBRENT: bracketing found
 ZBRENT: interpolating
 opt :  21.2653  next Energy=  -105.111029 (dE=-0.660E-02)
 bond charge predicted
       N       E                     dE             d eps       ncg     rms          rms(c)
DAV:   1    -0.105095040269E+03    0.16149E-01   -0.10916E+01  7140   0.930E+00    0.686E-01
RMM:   2    -0.105217336135E+03   -0.12230E+00   -0.20017E-01  7169   0.164E+00    0.282E+00
RMM:   3    -0.105122402407E+03    0.94934E-01   -0.23662E-02  7892   0.501E-01    0.814E-01
RMM:   4    -0.105116396068E+03    0.60063E-02   -0.11070E-02  7144   0.396E-01    0.602E-01
RMM:   5    -0.105113132730E+03    0.32633E-02   -0.36725E-03  7142   0.234E-01    0.354E-01
RMM:   6    -0.105112262913E+03    0.86982E-03   -0.28323E-03  7140   0.202E-01    0.231E-01
RMM:   7    -0.105111839573E+03    0.42334E-03   -0.13376E-03  7140   0.135E-01    0.151E-01
RMM:   8    -0.105111556458E+03    0.28312E-03   -0.54022E-04  7141   0.878E-02    0.674E-02
RMM:   9    -0.105111488050E+03    0.68408E-04   -0.83328E-05  7051   0.343E-02    0.289E-02
RMM:  10    -0.105111484423E+03    0.36264E-05   -0.23626E-05  4264   0.206E-02
  64 F= -.10511148E+03 E0= -.10502208E+03  d E =-.705158E-02
 curvature: ****** expect dE=-0.959E+00 dE for cont linesearch -0.447E-04
 trial: gam= 6.68769 g(F)=  0.583E-02 g(S)=  0.000E+00 ort = 0.610E-04 (trialstep = 0.954E-01)
 search vector abs. value=  0.619E+00
 bond charge predicted
       N       E                     dE             d eps       ncg     rms          rms(c)
DAV:   1    -0.105111973119E+03   -0.48507E-03   -0.63243E-02  8785   0.702E-01    0.565E-02
RMM:   2    -0.105113939774E+03   -0.19667E-02   -0.12212E-03  7321   0.123E-01    0.371E-01
RMM:   3    -0.105112136726E+03    0.18030E-02   -0.21681E-04  7279   0.495E-02    0.523E-02
RMM:   4    -0.105112089567E+03    0.47158E-04   -0.84552E-05  6935   0.367E-02    0.373E-02
RMM:   5    -0.105112083749E+03    0.58180E-05   -0.19767E-05  4208   0.196E-02
  65 F= -.10511208E+03 E0= -.10502269E+03  d E =-.599326E-03
 ZBRENT: can't locate minimum, use default step
 trial-energy change:   -0.000599  1 .order   -0.000554   -0.000596   -0.000513
 step:   0.3817(harm=  0.6861)  dis= 0.02361  next Energy=  -105.113625 (dE=-0.214E-02)
 bond charge predicted
       N       E                     dE             d eps       ncg     rms          rms(c)
DAV:   1    -0.105112609937E+03   -0.52037E-03   -0.56602E-01  8750   0.210E+00    0.163E-01
RMM:   2    -0.105115082011E+03   -0.24721E-02   -0.84590E-03  7166   0.331E-01    0.366E-01
RMM:   3    -0.105114581277E+03    0.50073E-03   -0.94826E-04  7821   0.110E-01    0.292E-01
RMM:   4    -0.105113866542E+03    0.71474E-03   -0.69034E-04  7175   0.963E-02    0.173E-01
RMM:   5    -0.105113527190E+03    0.33935E-03   -0.23540E-04  7143   0.592E-02    0.838E-02
RMM:   6    -0.105113445540E+03    0.81651E-04   -0.15451E-04  7101   0.486E-02    0.436E-02
RMM:   7    -0.105113452451E+03   -0.69117E-05   -0.72444E-05  6707   0.321E-02
  66 F= -.10511345E+03 E0= -.10502395E+03  d E =-.196803E-02
 curvature: -24.97 expect dE=-0.815E-01 dE for cont linesearch -0.571E-03
 ZBRENT: increasing intervall
 opt :   0.9542  next Energy=  -105.114681 (dE=-0.320E-02)
 bond charge predicted
       N       E                     dE             d eps       ncg     rms          rms(c)
DAV:   1    -0.105110795096E+03    0.26504E-02   -0.22435E+00  7140   0.418E+00    0.317E-01
RMM:   2    -0.105119061384E+03   -0.82663E-02   -0.36017E-02  7149   0.700E-01    0.625E-01
RMM:   3    -0.105118867891E+03    0.19349E-03   -0.41689E-03  8376   0.228E-01    0.596E-01
RMM:   4    -0.105115121046E+03    0.37468E-02   -0.24901E-03  7141   0.186E-01    0.246E-01
RMM:   5    -0.105114325256E+03    0.79579E-03   -0.75863E-04  7140   0.109E-01    0.111E-01
RMM:   6    -0.105114371528E+03   -0.46272E-04   -0.55419E-04  7141   0.913E-02    0.108E-01
RMM:   7    -0.105114220467E+03    0.15106E-03   -0.19649E-04  7143   0.531E-02    0.361E-02
RMM:   8    -0.105114200918E+03    0.19549E-04   -0.27548E-05  4536   0.212E-02    0.163E-02
RMM:   9    -0.105114205402E+03   -0.44842E-05   -0.10121E-05  4032   0.160E-02
  67 F= -.10511421E+03 E0= -.10502470E+03  d E =-.272098E-02
 curvature: -53.78 expect dE=-0.161E+00 dE for cont linesearch -0.168E-03
 ZBRENT: bracketing found
 ZBRENT: interpolating
 opt :   0.7998  next Energy=  -105.114313 (dE=-0.283E-02)
 bond charge predicted
       N       E                     dE             d eps       ncg     rms          rms(c)
DAV:   1    -0.105114076177E+03    0.12474E-03   -0.16352E-01  8575   0.113E+00    0.848E-02
RMM:   2    -0.105115182979E+03   -0.11068E-02   -0.24845E-03  7178   0.179E-01    0.261E-01
RMM:   3    -0.105114514251E+03    0.66873E-03   -0.28030E-04  7604   0.590E-02    0.121E-01
RMM:   4    -0.105114383325E+03    0.13093E-03   -0.18627E-04  7140   0.523E-02    0.749E-02
RMM:   5    -0.105114332868E+03    0.50456E-04   -0.57058E-05  6214   0.307E-02    0.443E-02
RMM:   6    -0.105114316619E+03    0.16249E-04   -0.37084E-05  4893   0.268E-02    0.276E-02
RMM:   7    -0.105114318050E+03   -0.14307E-05   -0.20659E-05  4100   0.223E-02
  68 F= -.10511432E+03 E0= -.10502483E+03  d E =-.283363E-02
 curvature: -34.40 expect dE=-0.903E-01 dE for cont linesearch -0.227E-05
 trial: gam= 0.08357 g(F)=  0.263E-02 g(S)=  0.000E+00 ort = 0.202E-03 (trialstep = 0.236E+00)
 search vector abs. value=  0.698E-02
 bond charge predicted
       N       E                     dE             d eps       ncg     rms          rms(c)
DAV:   1    -0.105114911700E+03   -0.59508E-03   -0.97837E-03  8470   0.283E-01    0.158E-02
RMM:   2    -0.105114933445E+03   -0.21745E-04   -0.16951E-04  6906   0.517E-02    0.246E-02
RMM:   3    -0.105114967340E+03   -0.33895E-04   -0.17208E-05  4006   0.161E-02    0.556E-02
RMM:   4    -0.105114928647E+03    0.38693E-04   -0.85007E-06  3982   0.151E-02    0.122E-02
RMM:   5    -0.105114926369E+03    0.22786E-05   -0.29327E-06  3880   0.898E-03
  69 F= -.10511493E+03 E0= -.10502543E+03  d E =-.608318E-03
 ZBRENT: can't locate minimum, use default step
 trial-energy change:   -0.000608  1 .order   -0.000612   -0.000624   -0.000599
 step:   0.9452(harm=  5.9231)  dis= 0.00547  next Energy=  -105.122144 (dE=-0.783E-02)
 bond charge predicted
       N       E                     dE             d eps       ncg     rms          rms(c)
DAV:   1    -0.105116577760E+03   -0.16491E-02   -0.87580E-02  8785   0.838E-01    0.492E-02
RMM:   2    -0.105117155460E+03   -0.57770E-03   -0.13091E-03  7168   0.133E-01    0.189E-01
RMM:   3    -0.105116822560E+03    0.33290E-03   -0.15324E-04  7343   0.449E-02    0.918E-02
RMM:   4    -0.105116708538E+03    0.11402E-03   -0.73236E-05  6720   0.332E-02    0.389E-02
RMM:   5    -0.105116695672E+03    0.12866E-04   -0.17866E-05  4059   0.179E-02    0.282E-02
RMM:   6    -0.105116686878E+03    0.87941E-05   -0.14913E-05  4002   0.211E-02
  70 F= -.10511669E+03 E0= -.10502716E+03  d E =-.236883E-02
 curvature:  -1.83 expect dE=-0.407E-02 dE for cont linesearch -0.151E-02
 ZBRENT: increasing intervall
 opt :   2.3630  next Energy=  -105.119901 (dE=-0.558E-02)
 bond charge predicted
       N       E                     dE             d eps       ncg     rms          rms(c)
DAV:   1    -0.105119389681E+03   -0.26940E-02   -0.34917E-01  8015   0.168E+00    0.978E-02
RMM:   2    -0.105121829657E+03   -0.24400E-02   -0.56246E-03  7166   0.270E-01    0.385E-01
RMM:   3    -0.105120467805E+03    0.13619E-02   -0.68561E-04  7561   0.974E-02    0.195E-01
RMM:   4    -0.105119935484E+03    0.53232E-03   -0.32609E-04  7140   0.699E-02    0.690E-02
RMM:   5    -0.105119879958E+03    0.55526E-04   -0.66609E-05  6789   0.298E-02    0.412E-02
RMM:   6    -0.105119876084E+03    0.38745E-05   -0.42276E-05  5268   0.255E-02
  71 F= -.10511988E+03 E0= -.10503029E+03  d E =-.555803E-02
 curvature:  -3.89 expect dE=-0.727E-02 dE for cont linesearch -0.242E-02
 ZBRENT: increasing intervall
 opt :   5.1987  next Energy=  -105.124893 (dE=-0.106E-01)
 bond charge predicted
       N       E                     dE             d eps       ncg     rms          rms(c)
DAV:   1    -0.105122768198E+03   -0.28882E-02   -0.13937E+00  7140   0.335E+00    0.191E-01
RMM:   2    -0.105133191457E+03   -0.10423E-01   -0.23435E-02  7147   0.558E-01    0.783E-01
RMM:   3    -0.105126577489E+03    0.66140E-02   -0.28565E-03  7699   0.200E-01    0.334E-01
RMM:   4    -0.105125119260E+03    0.14582E-02   -0.11618E-03  7141   0.131E-01    0.145E-01
RMM:   5    -0.105124891920E+03    0.22734E-03   -0.26570E-04  7152   0.591E-02    0.919E-02
RMM:   6    -0.105124859842E+03    0.32077E-04   -0.16892E-04  7151   0.448E-02    0.771E-02
RMM:   7    -0.105124863708E+03   -0.38653E-05   -0.22193E-04  7142   0.522E-02    0.712E-02
RMM:   8    -0.105124788802E+03    0.74905E-04   -0.86527E-05  7058   0.330E-02    0.167E-02
RMM:   9    -0.105124785034E+03    0.37689E-05   -0.10507E-05  3976   0.129E-02
  72 F= -.10512479E+03 E0= -.10503519E+03  d E =-.104670E-01
 curvature:  -8.05 expect dE=-0.134E-01 dE for cont linesearch -0.232E-02
 ZBRENT: increasing intervall
 opt :  10.8700  next Energy=  -105.129033 (dE=-0.147E-01)
 bond charge predicted
       N       E                     dE             d eps       ncg     rms          rms(c)
DAV:   1    -0.105120415299E+03    0.43735E-02   -0.55602E+00  7140   0.669E+00    0.377E-01
RMM:   2    -0.105149451939E+03   -0.29037E-01   -0.92927E-02  7146   0.115E+00    0.125E+00
RMM:   3    -0.105137115476E+03    0.12336E-01   -0.11438E-02  8257   0.390E-01    0.750E-01
RMM:   4    -0.105129798801E+03    0.73167E-02   -0.46024E-03  7149   0.256E-01    0.283E-01
RMM:   5    -0.105129035993E+03    0.76281E-03   -0.10216E-03  7168   0.114E-01    0.195E-01
RMM:   6    -0.105128733914E+03    0.30208E-03   -0.62339E-04  7148   0.891E-02    0.137E-01
RMM:   7    -0.105128843869E+03   -0.10996E-03   -0.85607E-04  7164   0.976E-02    0.142E-01
RMM:   8    -0.105128547711E+03    0.29616E-03   -0.35596E-04  7156   0.631E-02    0.356E-02
RMM:   9    -0.105128532319E+03    0.15391E-04   -0.49115E-05  5533   0.257E-02    0.246E-02
RMM:  10    -0.105128525677E+03    0.66426E-05   -0.16195E-05  4012   0.200E-02
  73 F= -.10512853E+03 E0= -.10503882E+03  d E =-.142076E-01
 curvature: -14.76 expect dE=-0.557E-01 dE for cont linesearch -0.565E-05
 trial: gam= 1.38416 g(F)=  0.377E-02 g(S)=  0.000E+00 ort =-0.517E-04 (trialstep = 0.970E+00)
 search vector abs. value=  0.170E-01
 bond charge predicted
       N       E                     dE             d eps       ncg     rms          rms(c)
DAV:   1    -0.105130979161E+03   -0.24468E-02   -0.50660E-01  7490   0.210E+00    0.180E-01
RMM:   2    -0.105149676416E+03   -0.18697E-01   -0.12626E-02  7270   0.350E-01    0.114E+00
RMM:   3    -0.105133224011E+03    0.16452E-01   -0.25721E-03  7286   0.167E-01    0.303E-01
RMM:   4    -0.105131878197E+03    0.13458E-02   -0.10658E-03  7169   0.117E-01    0.155E-01
RMM:   5    -0.105131532316E+03    0.34588E-03   -0.24343E-04  7168   0.552E-02    0.618E-02
RMM:   6    -0.105131489215E+03    0.43101E-04   -0.97555E-05  7021   0.363E-02    0.435E-02
RMM:   7    -0.105131479749E+03    0.94667E-05   -0.79891E-05  6964   0.311E-02
  74 F= -.10513148E+03 E0= -.10504173E+03  d E =-.295407E-02
 trial-energy change:   -0.002954  1 .order   -0.002967   -0.003592   -0.002342
 step:   2.7868(harm=  2.7868)  dis= 0.02175  next Energy=  -105.133686 (dE=-0.516E-02)
 bond charge predicted
       N       E                     dE             d eps       ncg     rms          rms(c)
DAV:   1    -0.105131454916E+03    0.34299E-04   -0.17746E+00  7175   0.393E+00    0.333E-01
RMM:   2    -0.105191868356E+03   -0.60413E-01   -0.43236E-02  7257   0.655E-01    0.204E+00
RMM:   3    -0.105139442527E+03    0.52426E-01   -0.86005E-03  7285   0.305E-01    0.578E-01
RMM:   4    -0.105134584400E+03    0.48581E-02   -0.36208E-03  7168   0.215E-01    0.287E-01
RMM:   5    -0.105133397387E+03    0.11870E-02   -0.85171E-04  7164   0.104E-01    0.118E-01
RMM:   6    -0.105133237702E+03    0.15968E-03   -0.33763E-04  7144   0.672E-02    0.770E-02
RMM:   7    -0.105133202791E+03    0.34911E-04   -0.28874E-04  7182   0.583E-02    0.636E-02
RMM:   8    -0.105133173171E+03    0.29620E-04   -0.13507E-04  7161   0.404E-02    0.410E-02
RMM:   9    -0.105133152851E+03    0.20320E-04   -0.20795E-05  4216   0.177E-02    0.204E-02
RMM:  10    -0.105133151399E+03    0.14520E-05   -0.87123E-06  3955   0.180E-02
  75 F= -.10513315E+03 E0= -.10504343E+03  d E =-.462572E-02
 curvature:  -6.40 expect dE=-0.278E-01 dE for cont linesearch -0.754E-04
 trial: gam= 1.28953 g(F)=  0.434E-02 g(S)=  0.000E+00 ort =-0.448E-03 (trialstep = 0.721E+00)
 search vector abs. value=  0.315E-01
 bond charge predicted
       N       E                     dE             d eps       ncg     rms          rms(c)
DAV:   1    -0.105135122125E+03   -0.19693E-02   -0.41873E-01  8330   0.190E+00    0.120E-01
RMM:   2    -0.105138355274E+03   -0.32331E-02   -0.71489E-03  7191   0.292E-01    0.445E-01
RMM:   3    -0.105136504546E+03    0.18507E-02   -0.84625E-04  7416   0.106E-01    0.229E-01
RMM:   4    -0.105135858896E+03    0.64565E-03   -0.43346E-04  7157   0.759E-02    0.106E-01
RMM:   5    -0.105135724857E+03    0.13404E-03   -0.12424E-04  7143   0.401E-02    0.583E-02
RMM:   6    -0.105135690378E+03    0.34479E-04   -0.70546E-05  6725   0.310E-02    0.359E-02
RMM:   7    -0.105135693401E+03   -0.30239E-05   -0.56126E-05  6231   0.273E-02
  76 F= -.10513569E+03 E0= -.10504599E+03  d E =-.254200E-02
 ZBRENT: can't locate minimum, use default step
 trial-energy change:   -0.002542  1 .order   -0.002545   -0.002712   -0.002379
 step:   2.8825(harm=  5.8767)  dis= 0.03450  next Energy=  -105.144208 (dE=-0.111E-01)
 bond charge predicted
       N       E                     dE             d eps       ncg     rms          rms(c)
