 running on   35 total cores
 distrk:  each k-point on   35 cores,    1 groups
 distr:  one band on    1 cores,   35 groups
 using from now: INCAR     
 vasp.5.4.1 24Jun15 (build Oct 26 2018 17:15:27) complex                        
  
 POSCAR found type information on POSCAR  Mn Bi
 POSCAR found :  2 types and       4 ions
 scaLAPACK will be used

 ----------------------------------------------------------------------------- 
|                                                                             |
|           W    W    AA    RRRRR   N    N  II  N    N   GGGG   !!!           |
|           W    W   A  A   R    R  NN   N  II  NN   N  G    G  !!!           |
|           W    W  A    A  R    R  N N  N  II  N N  N  G       !!!           |
|           W WW W  AAAAAA  RRRRR   N  N N  II  N  N N  G  GGG   !            |
|           WW  WW  A    A  R   R   N   NN  II  N   NN  G    G                |
|           W    W  A    A  R    R  N    N  II  N    N   GGGG   !!!           |
|                                                                             |
|      For optimal performance we recommend to set                            |
|        NCORE= 4 - approx SQRT( number of cores)                             |
|      NCORE specifies how many cores store one orbital (NPAR=cpu/NCORE).     |
|      This setting can  greatly improve the performance of VASP for DFT.     |
|      The default, NPAR=number of cores might be grossly inefficient         |
|      on modern multi-core architectures or massively parallel machines.     |
|      Do your own testing !!!!                                               |
|      Unfortunately you need to use the default for GW and RPA calculations. |
|      (for HF NCORE is supported but not extensively tested yet)             |
|                                                                             |
 ----------------------------------------------------------------------------- 

 LDA part: xc-table for Ceperly-Alder, standard interpolation
 POSCAR, INCAR and KPOINTS ok, starting setup
 WARNING: small aliasing (wrap around) errors must be expected
 FFT: planning ...
 WAVECAR not read
 entering main loop
       N       E                     dE             d eps       ncg     rms          rms(c)
DAV:   1     0.359226393760E+02    0.35923E+02   -0.10288E+04 51800   0.612E+02
DAV:   2    -0.235357221023E+02   -0.59458E+02   -0.59136E+02 60655   0.684E+01
DAV:   3    -0.246269976538E+02   -0.10913E+01   -0.10846E+01 74165   0.122E+01
DAV:   4    -0.246342283107E+02   -0.72307E-02   -0.72285E-02 78435   0.992E-01
DAV:   5    -0.246342595931E+02   -0.31282E-04   -0.31283E-04 77875   0.573E-02    0.131E+01
DAV:   6    -0.307361788090E+02   -0.61019E+01   -0.14288E+02 53620   0.559E+01    0.247E+01
DAV:   7    -0.235081422798E+02    0.72280E+01   -0.86976E+01 58730   0.431E+01    0.901E+00
DAV:   8    -0.234554923243E+02    0.52650E-01   -0.70644E-02 75635   0.116E+00    0.929E+00
DAV:   9    -0.241517073936E+02   -0.69622E+00   -0.25650E+00 73220   0.653E+00    0.698E+00
DAV:  10    -0.245378884681E+02   -0.38618E+00   -0.11280E+00 86695   0.476E+00    0.218E+00
DAV:  11    -0.245661420069E+02   -0.28254E-01   -0.61907E-02 71470   0.819E-01    0.232E+00
DAV:  12    -0.245801215334E+02   -0.13980E-01   -0.65449E-03 89495   0.334E-01    0.184E+00
DAV:  13    -0.246198074854E+02   -0.39686E-01   -0.11584E-01 78645   0.146E+00    0.609E-01
DAV:  14    -0.246242929932E+02   -0.44855E-02   -0.93223E-03 81830   0.439E-01    0.227E-01
DAV:  15    -0.246243877425E+02   -0.94749E-04   -0.30793E-03 79625   0.277E-01    0.135E-01
DAV:  16    -0.246244510115E+02   -0.63269E-04   -0.75610E-05 76790   0.427E-02    0.705E-02
DAV:  17    -0.246244582993E+02   -0.72877E-05   -0.16641E-04 71400   0.434E-02    0.279E-02
DAV:  18    -0.246244636855E+02   -0.53862E-05   -0.49070E-05 52430   0.318E-02
   1 F= -.24624464E+02 E0= -.24624417E+02  d E =-.246245E+02  mag=     6.8948
 curvature:   0.00 expect dE= 0.000E+00 dE for cont linesearch  0.000E+00
 trial: gam= 0.00000 g(F)=  0.108E-41 g(S)=  0.102E-02 ort = 0.000E+00 (trialstep = 0.100E+01)
 search vector abs. value=  0.102E-02
 bond charge predicted
       N       E                     dE             d eps       ncg     rms          rms(c)
DAV:   1    -0.246263997381E+02   -0.19414E-02   -0.31043E-02 52430   0.141E+00    0.269E-01
DAV:   2    -0.246265855180E+02   -0.18578E-03   -0.32148E-02 56665   0.108E+00    0.238E-01
DAV:   3    -0.246254021301E+02    0.11834E-02   -0.11150E-02 62720   0.619E-01    0.458E-02
DAV:   4    -0.246253467722E+02    0.55358E-04   -0.15794E-04 76265   0.596E-02    0.172E-02
DAV:   5    -0.246253459820E+02    0.79012E-06   -0.11666E-05 61075   0.136E-02
   2 F= -.24625346E+02 E0= -.24625306E+02  d E =-.882297E-03  mag=     6.8896
 trial-energy change:   -0.000882  1 .order   -0.000877   -0.001019   -0.000734
 step:   3.5773(harm=  3.5773)  dis= 0.00000  next Energy=   -24.626287 (dE=-0.182E-02)
 bond charge predicted
       N       E                     dE             d eps       ncg     rms          rms(c)
DAV:   1    -0.246334108451E+02   -0.80641E-02   -0.20610E-01 51870   0.364E+00    0.694E-01
DAV:   2    -0.246344257157E+02   -0.10149E-02   -0.20852E-01 56245   0.275E+00    0.602E-01
DAV:   3    -0.246268043609E+02    0.76214E-02   -0.72310E-02 62440   0.158E+00    0.118E-01
DAV:   4    -0.246264154051E+02    0.38896E-03   -0.11159E-03 75075   0.155E-01    0.436E-02
DAV:   5    -0.246264135534E+02    0.18518E-05   -0.67997E-05 81200   0.342E-02
   3 F= -.24626414E+02 E0= -.24626382E+02  d E =-.194987E-02  mag=     6.8706
 curvature:  -1.79 expect dE=-0.819E-05 dE for cont linesearch -0.546E-05
 trial: gam=-0.05023 g(F)=  0.271E-40 g(S)=  0.458E-05 ort = 0.558E-04 (trialstep = 0.152E+01)
 search vector abs. value=  0.155E-05
 reached required accuracy - stopping structural energy minimisation
