 running on   40 total cores
 distrk:  each k-point on   40 cores,    1 groups
 distr:  one band on    1 cores,   40 groups
 using from now: INCAR     
 vasp.5.4.1 24Jun15 (build Oct 26 2018 17:15:27) complex                        
  
 POSCAR found type information on POSCAR  Pt
 POSCAR found :  1 types and      13 ions
 scaLAPACK will be used

 ----------------------------------------------------------------------------- 
|                                                                             |
|           W    W    AA    RRRRR   N    N  II  N    N   GGGG   !!!           |
|           W    W   A  A   R    R  NN   N  II  NN   N  G    G  !!!           |
|           W    W  A    A  R    R  N N  N  II  N N  N  G       !!!           |
|           W WW W  AAAAAA  RRRRR   N  N N  II  N  N N  G  GGG   !            |
|           WW  WW  A    A  R   R   N   NN  II  N   NN  G    G                |
|           W    W  A    A  R    R  N    N  II  N    N   GGGG   !!!           |
|                                                                             |
|      For optimal performance we recommend to set                            |
|        NCORE= 4 - approx SQRT( number of cores)                             |
|      NCORE specifies how many cores store one orbital (NPAR=cpu/NCORE).     |
|      This setting can  greatly improve the performance of VASP for DFT.     |
|      The default, NPAR=number of cores might be grossly inefficient         |
|      on modern multi-core architectures or massively parallel machines.     |
|      Do your own testing !!!!                                               |
|      Unfortunately you need to use the default for GW and RPA calculations. |
|      (for HF NCORE is supported but not extensively tested yet)             |
|                                                                             |
 ----------------------------------------------------------------------------- 

 LDA part: xc-table for Ceperly-Alder, standard interpolation
 POSCAR, INCAR and KPOINTS ok, starting setup
 WARNING: small aliasing (wrap around) errors must be expected
 FFT: planning ...
 WAVECAR not read
 entering main loop
       N       E                     dE             d eps       ncg     rms          rms(c)
DAV:   1     0.988173137822E+03    0.98817E+03   -0.19449E+04   160   0.615E+02
DAV:   2     0.318764515109E+03   -0.66941E+03   -0.66055E+03   320   0.895E+01
DAV:   3    -0.275744280918E+02   -0.34634E+03   -0.34399E+03   280   0.116E+02
DAV:   4    -0.590336921961E+02   -0.31459E+02   -0.31348E+02   240   0.502E+01
DAV:   5    -0.603009565188E+02   -0.12673E+01   -0.12354E+01   160   0.111E+01    0.117E+01
DAV:   6    -0.577446072655E+02    0.25563E+01   -0.22251E+01   200   0.194E+01    0.838E+00
DAV:   7    -0.593322422657E+02   -0.15876E+01   -0.52550E+01   280   0.315E+01    0.112E+01
DAV:   8    -0.569927783038E+02    0.23395E+01   -0.18288E+01   280   0.199E+01    0.482E+00
DAV:   9    -0.566485043550E+02    0.34427E+00   -0.32565E+00   240   0.879E+00    0.250E+00
DAV:  10    -0.566508945101E+02   -0.23902E-02   -0.13639E+00   240   0.495E+00    0.253E+00
DAV:  11    -0.566011381524E+02    0.49756E-01   -0.84917E-01   240   0.380E+00    0.124E+00
DAV:  12    -0.565927713893E+02    0.83668E-02   -0.35727E-01   240   0.310E+00    0.963E-01
DAV:  13    -0.565801730436E+02    0.12598E-01   -0.24187E-01   280   0.237E+00    0.654E-01
DAV:  14    -0.565745252841E+02    0.56478E-02   -0.93364E-02   200   0.126E+00    0.481E-01
DAV:  15    -0.565712474170E+02    0.32779E-02   -0.45540E-02   200   0.776E-01    0.274E-01
DAV:  16    -0.565684656762E+02    0.27817E-02   -0.13137E-02   240   0.480E-01    0.128E-01
DAV:  17    -0.565670152388E+02    0.14504E-02   -0.29029E-03   160   0.302E-01    0.572E-02
DAV:  18    -0.565671839855E+02   -0.16875E-03   -0.96860E-04   160   0.135E-01    0.542E-02
DAV:  19    -0.565681569512E+02   -0.97297E-03   -0.50430E-04   160   0.113E-01    0.329E-02
DAV:  20    -0.565702275293E+02   -0.20706E-02   -0.73860E-04   200   0.111E-01    0.284E-02
DAV:  21    -0.565716853736E+02   -0.14578E-02   -0.44842E-04   160   0.824E-02    0.267E-02
DAV:  22    -0.565728733437E+02   -0.11880E-02   -0.46418E-04   200   0.609E-02    0.113E-02
DAV:  23    -0.565737306008E+02   -0.85726E-03   -0.26601E-04   160   0.434E-02    0.811E-03
DAV:  24    -0.565741372296E+02   -0.40663E-03   -0.78436E-05   160   0.322E-02    0.509E-03
DAV:  25    -0.565745448747E+02   -0.40765E-03   -0.47988E-05   120   0.236E-02    0.465E-03
DAV:  26    -0.565747702856E+02   -0.22541E-03   -0.22133E-05   200   0.175E-02    0.316E-03
DAV:  27    -0.565749483965E+02   -0.17811E-03   -0.17547E-05   120   0.130E-02    0.230E-03
DAV:  28    -0.565750603702E+02   -0.11197E-03   -0.15011E-05   120   0.968E-03    0.170E-03
DAV:  29    -0.565750954026E+02   -0.35032E-04   -0.53582E-06   160   0.714E-03
   1 F= -.56575095E+02 E0= -.56509064E+02  d E =-.565751E+02
 summed vel is now  1.626303258728257E-019  1.626303258728257E-019
  5.421010862427522E-019
quench:  g(F)=  0.816E-03 g(S)=  0.000E+00 dE (1.order)=-0.163E-02
 bond charge predicted
       N       E                     dE             d eps       ncg     rms          rms(c)
DAV:   1    -0.565764866788E+02   -0.14263E-02   -0.18929E-01   160   0.130E+00    0.490E-02
DAV:   2    -0.565768343433E+02   -0.34766E-03   -0.37819E-03   280   0.266E-01    0.729E-02
DAV:   3    -0.565767875219E+02    0.46821E-04   -0.11116E-03   200   0.156E-01    0.523E-02
DAV:   4    -0.565767620099E+02    0.25512E-04   -0.40289E-04   120   0.682E-02
   2 F= -.56576762E+02 E0= -.56510804E+02  d E =-.166661E-02
 summed vel is now  5.421010862427522E-019 -6.505213034913027E-019
  0.000000000000000E+000
quench:  g(F)=  0.782E-03 g(S)=  0.000E+00 dE (1.order)=-0.315E-02
 bond charge predicted
       N       E                     dE             d eps       ncg     rms          rms(c)
DAV:   1    -0.565789854595E+02   -0.21979E-02   -0.73723E-01   160   0.256E+00    0.102E-01
DAV:   2    -0.565802069025E+02   -0.12214E-02   -0.12830E-02   200   0.499E-01    0.135E-01
DAV:   3    -0.565801798335E+02    0.27069E-04   -0.44651E-03   240   0.260E-01    0.140E-01
DAV:   4    -0.565800495423E+02    0.13029E-03   -0.25072E-03   120   0.153E-01    0.866E-02
DAV:   5    -0.565799423606E+02    0.10718E-03   -0.10695E-03   120   0.122E-01    0.759E-02
DAV:   6    -0.565798921523E+02    0.50208E-04   -0.94428E-04   120   0.142E-01
   3 F= -.56579892E+02 E0= -.56514091E+02  d E =-.313014E-02
 summed vel is now -3.252606517456513E-019 -1.517883041479706E-018
 -6.505213034913027E-019
quench:  g(F)=  0.860E-03 g(S)=  0.000E+00 dE (1.order)=-0.496E-02
 bond charge predicted
       N       E                     dE             d eps       ncg     rms          rms(c)
DAV:   1    -0.565822709952E+02   -0.23286E-02   -0.16568E+00   160   0.385E+00    0.154E-01
DAV:   2    -0.565857879162E+02   -0.35169E-02   -0.37851E-02   280   0.826E-01    0.300E-01
DAV:   3    -0.565852487271E+02    0.53919E-03   -0.15585E-02   240   0.522E-01    0.179E-01
DAV:   4    -0.565848310828E+02    0.41764E-03   -0.43860E-03   160   0.201E-01    0.121E-01
DAV:   5    -0.565846536532E+02    0.17743E-03   -0.24940E-03   120   0.156E-01    0.105E-01
DAV:   6    -0.565845899539E+02    0.63699E-04   -0.19162E-03   120   0.174E-01    0.989E-02
DAV:   7    -0.565844970905E+02    0.92863E-04   -0.17192E-03   160   0.174E-01    0.554E-02
DAV:   8    -0.565844391306E+02    0.57960E-04   -0.58690E-04   120   0.109E-01
   4 F= -.56584439E+02 E0= -.56518677E+02  d E =-.454698E-02
 summed vel is now  1.517883041479706E-018 -4.336808689942018E-019
  0.000000000000000E+000
quench:  g(F)=  0.801E-03 g(S)=  0.000E+00 dE (1.order)=-0.631E-02
 bond charge predicted
       N       E                     dE             d eps       ncg     rms          rms(c)
DAV:   1    -0.565866599672E+02   -0.21629E-02   -0.28849E+00   160   0.507E+00    0.189E-01
DAV:   2    -0.565918130604E+02   -0.51531E-02   -0.54263E-02   240   0.103E+00    0.264E-01
DAV:   3    -0.565914622514E+02    0.35081E-03   -0.13550E-02   280   0.524E-01    0.217E-01
DAV:   4    -0.565910227084E+02    0.43954E-03   -0.52238E-03   160   0.242E-01    0.126E-01
DAV:   5    -0.565907990149E+02    0.22369E-03   -0.35959E-03   120   0.202E-01    0.152E-01
DAV:   6    -0.565907496052E+02    0.49410E-04   -0.45010E-03   160   0.230E-01    0.140E-01
DAV:   7    -0.565905575861E+02    0.19202E-03   -0.28657E-03   160   0.213E-01    0.680E-02
DAV:   8    -0.565904468224E+02    0.11076E-03   -0.77117E-04   120   0.129E-01    0.275E-02
DAV:   9    -0.565904372936E+02    0.95288E-05   -0.16260E-04   200   0.616E-02
   5 F= -.56590437E+02 E0= -.56524757E+02  d E =-.599816E-02
 summed vel is now  4.336808689942018E-019  1.301042606982605E-018
 -1.301042606982605E-018
quench:  g(F)=  0.734E-03 g(S)=  0.000E+00 dE (1.order)=-0.744E-02
 bond charge predicted
       N       E                     dE             d eps       ncg     rms          rms(c)
DAV:   1    -0.565919208098E+02   -0.14740E-02   -0.43756E+00   160   0.625E+00    0.239E-01
DAV:   2    -0.566008793127E+02   -0.89585E-02   -0.95980E-02   240   0.132E+00    0.480E-01
DAV:   3    -0.566000399542E+02    0.83936E-03   -0.43678E-02   200   0.756E-01    0.332E-01
DAV:   4    -0.565988576750E+02    0.11823E-02   -0.14886E-02   200   0.369E-01    0.200E-01
DAV:   5    -0.565982962169E+02    0.56146E-03   -0.56426E-03   160   0.253E-01    0.158E-01
DAV:   6    -0.565979531893E+02    0.34303E-03   -0.35157E-03   200   0.258E-01    0.119E-01
DAV:   7    -0.565977229179E+02    0.23027E-03   -0.22446E-03   160   0.232E-01    0.569E-02
DAV:   8    -0.565976504234E+02    0.72495E-04   -0.64623E-04   200   0.123E-01
   6 F= -.56597650E+02 E0= -.56532119E+02  d E =-.721313E-02
 summed vel is now  4.336808689942018E-019 -1.734723475976807E-018
 -8.673617379884035E-019
quench:  g(F)=  0.703E-03 g(S)=  0.000E+00 dE (1.order)=-0.852E-02
 bond charge predicted
       N       E                     dE             d eps       ncg     rms          rms(c)
DAV:   1    -0.565978292396E+02   -0.10632E-03   -0.59809E+00   160   0.731E+00    0.292E-01
DAV:   2    -0.566113836184E+02   -0.13554E-01   -0.14296E-01   240   0.165E+00    0.662E-01
DAV:   3    -0.566092944057E+02    0.20892E-02   -0.67067E-02   200   0.102E+00    0.417E-01
DAV:   4    -0.566073825867E+02    0.19118E-02   -0.22522E-02   200   0.484E-01    0.236E-01
DAV:   5    -0.566065090199E+02    0.87357E-03   -0.78473E-03   160   0.289E-01    0.169E-01
DAV:   6    -0.566061496969E+02    0.35932E-03   -0.55302E-03   200   0.293E-01    0.151E-01
DAV:   7    -0.566057910248E+02    0.35867E-03   -0.38281E-03   280   0.269E-01    0.658E-02
DAV:   8    -0.566056825778E+02    0.10845E-03   -0.91338E-04   160   0.147E-01    0.351E-02
DAV:   9    -0.566056768736E+02    0.57042E-05   -0.30747E-04   200   0.767E-02
   7 F= -.56605677E+02 E0= -.56540319E+02  d E =-.802645E-02
 summed vel is now -2.059984127722458E-018  6.938893903907228E-018
  0.000000000000000E+000
quench:  g(F)=  0.692E-03 g(S)=  0.000E+00 dE (1.order)=-0.886E-02
 bond charge predicted
       N       E                     dE             d eps       ncg     rms          rms(c)
DAV:   1    -0.566042695841E+02    0.14130E-02   -0.66031E+00   160   0.769E+00    0.335E-01
DAV:   2    -0.566237725155E+02   -0.19503E-01   -0.22665E-01   280   0.197E+00    0.976E-01
DAV:   3    -0.566179057070E+02    0.58668E-02   -0.15402E-01   200   0.134E+00    0.493E-01
DAV:   4    -0.566148506276E+02    0.30551E-02   -0.35190E-02   200   0.593E-01    0.257E-01
DAV:   5    -0.566136643034E+02    0.11863E-02   -0.89347E-03   160   0.344E-01    0.176E-01
DAV:   6    -0.566132170840E+02    0.44722E-03   -0.51830E-03   200   0.308E-01    0.165E-01
DAV:   7    -0.566129956261E+02    0.22146E-03   -0.52982E-03   200   0.315E-01    0.131E-01
DAV:   8    -0.566127587746E+02    0.23685E-03   -0.28097E-03   120   0.227E-01    0.575E-02
DAV:   9    -0.566127029366E+02    0.55838E-04   -0.59059E-04   200   0.112E-01
   8 F= -.56612703E+02 E0= -.56547168E+02  d E =-.702606E-02
 summed vel is now  0.000000000000000E+000  3.117081245895825E-019
  1.734723475976807E-018
quench:  g(F)=  0.109E-02 g(S)=  0.000E+00 dE (1.order)=-0.712E-02
 bond charge predicted
       N       E                     dE             d eps       ncg     rms          rms(c)
DAV:   1    -0.566138761552E+02   -0.11174E-02   -0.27386E+00   160   0.495E+00    0.292E-01
DAV:   2    -0.566288711790E+02   -0.14995E-01   -0.18843E-01   280   0.169E+00    0.105E+00
DAV:   3    -0.566212609859E+02    0.76102E-02   -0.16681E-01   200   0.138E+00    0.470E-01
DAV:   4    -0.566179615938E+02    0.32994E-02   -0.32803E-02   200   0.605E-01    0.173E-01
DAV:   5    -0.566170188887E+02    0.94271E-03   -0.49441E-03   160   0.252E-01    0.102E-01
DAV:   6    -0.566168342471E+02    0.18464E-03   -0.25572E-03   200   0.206E-01    0.911E-02
DAV:   7    -0.566167480753E+02    0.86172E-04   -0.20797E-03   160   0.204E-01    0.630E-02
DAV:   8    -0.566166877730E+02    0.60302E-04   -0.76962E-04   120   0.137E-01
   9 F= -.56616688E+02 E0= -.56551365E+02  d E =-.398484E-02
 summed vel is now  4.878909776184770E-019  8.673617379884035E-019
  0.000000000000000E+000
quench:  g(F)=  0.999E-03 g(S)=  0.000E+00 dE (1.order)=-0.299E-02
 bond charge predicted
       N       E                     dE             d eps       ncg     rms          rms(c)
DAV:   1    -0.566184932934E+02   -0.17452E-02   -0.52501E-01   160   0.217E+00    0.112E-01
DAV:   2    -0.566204568625E+02   -0.19636E-02   -0.24415E-02   280   0.659E-01    0.336E-01
DAV:   3    -0.566198156599E+02    0.64120E-03   -0.19419E-02   200   0.491E-01    0.183E-01
DAV:   4    -0.566193161353E+02    0.49952E-03   -0.48329E-03   160   0.228E-01    0.728E-02
DAV:   5    -0.566191467331E+02    0.16940E-03   -0.85466E-04   120   0.110E-01    0.501E-02
DAV:   6    -0.566191261013E+02    0.20632E-04   -0.48436E-04   120   0.971E-02
  10 F= -.56619126E+02 E0= -.56553777E+02  d E =-.243833E-02
 summed vel is now  1.301042606982605E-018  6.505213034913027E-019
  6.505213034913027E-019
quench:  g(F)=  0.632E-03 g(S)=  0.000E+00 dE (1.order)=-0.324E-02
 bond charge predicted
       N       E                     dE             d eps       ncg     rms          rms(c)
DAV:   1    -0.566208578429E+02   -0.17111E-02   -0.96545E-01   160   0.294E+00    0.111E-01
DAV:   2    -0.566227105670E+02   -0.18527E-02   -0.19451E-02   240   0.597E-01    0.200E-01
DAV:   3    -0.566225069075E+02    0.20366E-03   -0.69308E-03   160   0.334E-01    0.132E-01
DAV:   4    -0.566222986138E+02    0.20829E-03   -0.21437E-03   120   0.145E-01    0.856E-02
DAV:   5    -0.566222126180E+02    0.85996E-04   -0.12898E-03   120   0.122E-01    0.815E-02
DAV:   6    -0.566221707870E+02    0.41831E-04   -0.12572E-03   120   0.143E-01    0.747E-02
DAV:   7    -0.566221154796E+02    0.55307E-04   -0.96276E-04   120   0.144E-01
  11 F= -.56622115E+02 E0= -.56556621E+02  d E =-.298938E-02
 summed vel is now  4.336808689942018E-019 -6.505213034913027E-019
  4.336808689942018E-019
quench:  g(F)=  0.586E-03 g(S)=  0.000E+00 dE (1.order)=-0.422E-02
 bond charge predicted
       N       E                     dE             d eps       ncg     rms          rms(c)
DAV:   1    -0.566237497586E+02   -0.15790E-02   -0.17629E+00   160   0.397E+00    0.140E-01
DAV:   2    -0.566266560132E+02   -0.29063E-02   -0.30173E-02   240   0.754E-01    0.152E-01
DAV:   3    -0.566264885322E+02    0.16748E-03   -0.42971E-03   240   0.334E-01    0.136E-01
DAV:   4    -0.566263420492E+02    0.14648E-03   -0.21991E-03   120   0.170E-01    0.986E-02
DAV:   5    -0.566262231811E+02    0.11887E-03   -0.16911E-03   120   0.160E-01    0.952E-02
DAV:   6    -0.566262906925E+02   -0.67511E-04   -0.35096E-03   160   0.201E-01    0.147E-01
DAV:   7    -0.566261754703E+02    0.11522E-03   -0.27050E-03   120   0.180E-01    0.498E-02
DAV:   8    -0.566260672121E+02    0.10826E-03   -0.45581E-04   120   0.983E-02    0.184E-02
DAV:   9    -0.566260635545E+02    0.36576E-05   -0.84792E-05   120   0.460E-02
  12 F= -.56626064E+02 E0= -.56560401E+02  d E =-.394807E-02
 summed vel is now -1.084202172485504E-018  1.084202172485504E-018
 -1.301042606982605E-018
quench:  g(F)=  0.541E-03 g(S)=  0.000E+00 dE (1.order)=-0.507E-02
 bond charge predicted
       N       E                     dE             d eps       ncg     rms          rms(c)
DAV:   1    -0.566273580263E+02   -0.12908E-02   -0.27604E+00   160   0.496E+00    0.187E-01
DAV:   2    -0.566331192737E+02   -0.57612E-02   -0.59768E-02   240   0.106E+00    0.398E-01
DAV:   3    -0.566323771142E+02    0.74216E-03   -0.21933E-02   200   0.614E-01    0.222E-01
DAV:   4    -0.566315428775E+02    0.83424E-03   -0.61022E-03   160   0.267E-01    0.139E-01
DAV:   5    -0.566312772335E+02    0.26564E-03   -0.32715E-03   120   0.185E-01    0.129E-01
DAV:   6    -0.566311201187E+02    0.15711E-03   -0.31043E-03   160   0.215E-01    0.103E-01
DAV:   7    -0.566309966931E+02    0.12343E-03   -0.24406E-03   120   0.215E-01    0.705E-02
DAV:   8    -0.566309188831E+02    0.77810E-04   -0.97873E-04   200   0.148E-01
  13 F= -.56630919E+02 E0= -.56565238E+02  d E =-.485533E-02
 summed vel is now  0.000000000000000E+000  4.336808689942018E-019
  0.000000000000000E+000
quench:  g(F)=  0.518E-03 g(S)=  0.000E+00 dE (1.order)=-0.587E-02
 bond charge predicted
       N       E                     dE             d eps       ncg     rms          rms(c)
DAV:   1    -0.566313574851E+02   -0.36079E-03   -0.38584E+00   160   0.587E+00    0.226E-01
DAV:   2    -0.566391690375E+02   -0.78116E-02   -0.83355E-02   240   0.126E+00    0.415E-01
DAV:   3    -0.566380257775E+02    0.11433E-02   -0.27780E-02   200   0.764E-01    0.248E-01
DAV:   4    -0.566371645444E+02    0.86123E-03   -0.64021E-03   160   0.292E-01    0.146E-01
DAV:   5    -0.566368414423E+02    0.32310E-03   -0.38129E-03   120   0.229E-01    0.148E-01
DAV:   6    -0.566367957445E+02    0.45698E-04   -0.59173E-03   200   0.271E-01    0.164E-01
DAV:   7    -0.566366734846E+02    0.12226E-03   -0.61917E-03   160   0.268E-01    0.134E-01
DAV:   8    -0.566364502148E+02    0.22327E-03   -0.25286E-03   120   0.191E-01    0.370E-02
DAV:   9    -0.566363950763E+02    0.55138E-04   -0.28308E-04   120   0.762E-02
  14 F= -.56636395E+02 E0= -.56570529E+02  d E =-.547619E-02
 summed vel is now  1.301042606982605E-018  0.000000000000000E+000
  4.336808689942018E-019
quench:  g(F)=  0.510E-03 g(S)=  0.000E+00 dE (1.order)=-0.633E-02
 bond charge predicted
       N       E                     dE             d eps       ncg     rms          rms(c)
DAV:   1    -0.566357717914E+02    0.67842E-03   -0.45614E+00   160   0.638E+00    0.248E-01
DAV:   2    -0.566458163623E+02   -0.10045E-01   -0.10906E-01   240   0.144E+00    0.521E-01
DAV:   3    -0.566437882758E+02    0.20281E-02   -0.40587E-02   200   0.881E-01    0.262E-01
DAV:   4    -0.566427530886E+02    0.10352E-02   -0.10191E-02   200   0.342E-01    0.194E-01
DAV:   5    -0.566422748197E+02    0.47827E-03   -0.54097E-03   120   0.250E-01    0.143E-01
DAV:   6    -0.566421531703E+02    0.12165E-03   -0.56836E-03   200   0.270E-01    0.180E-01
DAV:   7    -0.566419630675E+02    0.19010E-03   -0.63465E-03   160   0.296E-01    0.104E-01
DAV:   8    -0.566417412500E+02    0.22182E-03   -0.17967E-03   120   0.184E-01    0.352E-02
DAV:   9    -0.566417151963E+02    0.26054E-04   -0.17152E-04   200   0.675E-02
  15 F= -.56641715E+02 E0= -.56575509E+02  d E =-.532012E-02
 summed vel is now  0.000000000000000E+000 -8.673617379884035E-019
  0.000000000000000E+000
quench:  g(F)=  0.651E-03 g(S)=  0.000E+00 dE (1.order)=-0.573E-02
 bond charge predicted
       N       E                     dE             d eps       ncg     rms          rms(c)
DAV:   1    -0.566418119126E+02   -0.70663E-04   -0.29503E+00   160   0.514E+00    0.250E-01
DAV:   2    -0.566502802817E+02   -0.84684E-02   -0.10739E-01   240   0.141E+00    0.553E-01
DAV:   3    -0.566467118952E+02    0.35684E-02   -0.58417E-02   240   0.111E+00    0.230E-01
DAV:   4    -0.566458448243E+02    0.86707E-03   -0.10225E-02   200   0.348E-01    0.187E-01
DAV:   5    -0.566455473217E+02    0.29750E-03   -0.56632E-03   120   0.238E-01    0.127E-01
DAV:   6    -0.566452856017E+02    0.26172E-03   -0.28602E-03   160   0.218E-01    0.829E-02
DAV:   7    -0.566452574223E+02    0.28179E-04   -0.23304E-03   120   0.202E-01    0.112E-01
DAV:   8    -0.566451791959E+02    0.78226E-04   -0.16718E-03   120   0.171E-01    0.399E-02
DAV:   9    -0.566451247815E+02    0.54414E-04   -0.29165E-04   120   0.778E-02
  16 F= -.56645125E+02 E0= -.56578764E+02  d E =-.340959E-02
 summed vel is now -5.421010862427522E-019 -4.336808689942018E-019
 -2.168404344971009E-019
quench:  g(F)=  0.847E-03 g(S)=  0.000E+00 dE (1.order)=-0.299E-02
 bond charge predicted
       N       E                     dE             d eps       ncg     rms          rms(c)
DAV:   1    -0.566467049163E+02   -0.15257E-02   -0.61771E-01   160   0.235E+00    0.120E-01
DAV:   2    -0.566486993421E+02   -0.19944E-02   -0.24750E-02   280   0.640E-01    0.302E-01
DAV:   3    -0.566479023938E+02    0.79695E-03   -0.15086E-02   200   0.513E-01    0.130E-01
DAV:   4    -0.566475852801E+02    0.31711E-03   -0.33358E-03   160   0.187E-01    0.862E-02
DAV:   5    -0.566474663077E+02    0.11897E-03   -0.12534E-03   120   0.122E-01    0.518E-02
DAV:   6    -0.566474307837E+02    0.35524E-04   -0.50036E-04   120   0.984E-02
  17 F= -.56647431E+02 E0= -.56581077E+02  d E =-.230600E-02
 summed vel is now -2.168404344971009E-019 -6.505213034913027E-019
 -6.505213034913027E-019
quench:  g(F)=  0.457E-03 g(S)=  0.000E+00 dE (1.order)=-0.250E-02
 bond charge predicted
       N       E                     dE             d eps       ncg     rms          rms(c)
DAV:   1    -0.566487420864E+02   -0.12758E-02   -0.79591E-01   160   0.267E+00    0.995E-02
DAV:   2    -0.566501289623E+02   -0.13869E-02   -0.14890E-02   240   0.547E-01    0.130E-01
DAV:   3    -0.566499456073E+02    0.18335E-03   -0.31038E-03   240   0.287E-01    0.874E-02
DAV:   4    -0.566498570645E+02    0.88543E-04   -0.11294E-03   120   0.128E-01    0.707E-02
DAV:   5    -0.566498232979E+02    0.33767E-04   -0.92450E-04   120   0.108E-01
  18 F= -.56649823E+02 E0= -.56583373E+02  d E =-.239251E-02
 summed vel is now -4.336808689942018E-019  1.084202172485504E-018
 -4.336808689942018E-019
quench:  g(F)=  0.470E-03 g(S)=  0.000E+00 dE (1.order)=-0.341E-02
 bond charge predicted
       N       E                     dE             d eps       ncg     rms          rms(c)
DAV:   1    -0.566510681717E+02   -0.12111E-02   -0.14381E+00   160   0.359E+00    0.135E-01
DAV:   2    -0.566534122516E+02   -0.23441E-02   -0.24550E-02   240   0.675E-01    0.157E-01
DAV:   3    -0.566532002794E+02    0.21197E-03   -0.47590E-03   240   0.343E-01    0.126E-01
DAV:   4    -0.566530438211E+02    0.15646E-03   -0.23141E-03   120   0.171E-01    0.102E-01
DAV:   5    -0.566529644783E+02    0.79343E-04   -0.21007E-03   120   0.167E-01    0.103E-01
DAV:   6    -0.566529694842E+02   -0.50059E-05   -0.31379E-03   160   0.199E-01    0.111E-01
DAV:   7    -0.566528483524E+02    0.12113E-03   -0.18640E-03   120   0.170E-01    0.504E-02
DAV:   8    -0.566528070382E+02    0.41314E-04   -0.39624E-04   120   0.861E-02
  19 F= -.56652807E+02 E0= -.56586101E+02  d E =-.298374E-02
 summed vel is now  0.000000000000000E+000  2.385244779468110E-018
  2.168404344971009E-019
quench:  g(F)=  0.434E-03 g(S)=  0.000E+00 dE (1.order)=-0.395E-02
 bond charge predicted
       N       E                     dE             d eps       ncg     rms          rms(c)
DAV:   1    -0.566537900436E+02   -0.94169E-03   -0.20863E+00   160   0.431E+00    0.171E-01
DAV:   2    -0.566586911294E+02   -0.49011E-02   -0.54365E-02   240   0.934E-01    0.426E-01
DAV:   3    -0.566577237369E+02    0.96739E-03   -0.28789E-02   200   0.620E-01    0.200E-01
DAV:   4    -0.566568818199E+02    0.84192E-03   -0.59336E-03   160   0.260E-01    0.118E-01
DAV:   5    -0.566566825600E+02    0.19926E-03   -0.22784E-03   120   0.173E-01    0.102E-01
DAV:   6    -0.566566003974E+02    0.82163E-04   -0.20560E-03   160   0.179E-01    0.934E-02
DAV:   7    -0.566564945355E+02    0.10586E-03   -0.14882E-03   120   0.175E-01    0.465E-02
DAV:   8    -0.566564530870E+02    0.41449E-04   -0.42188E-04   120   0.110E-01
  20 F= -.56656453E+02 E0= -.56589569E+02  d E =-.364605E-02
 summed vel is now -4.336808689942018E-019 -1.084202172485504E-018
  3.035766082959412E-018
quench:  g(F)=  0.456E-03 g(S)=  0.000E+00 dE (1.order)=-0.456E-02
 bond charge predicted
       N       E                     dE             d eps       ncg     rms          rms(c)
DAV:   1    -0.566569677952E+02   -0.47326E-03   -0.26405E+00   160   0.485E+00    0.191E-01
DAV:   2    -0.566622556875E+02   -0.52879E-02   -0.58208E-02   240   0.106E+00    0.347E-01
DAV:   3    -0.566615937403E+02    0.66195E-03   -0.23295E-02   200   0.636E-01    0.246E-01
DAV:   4    -0.566609727196E+02    0.62102E-03   -0.84970E-03   160   0.310E-01    0.135E-01
DAV:   5    -0.566605697429E+02    0.40298E-03   -0.23241E-03   120   0.178E-01    0.899E-02
DAV:   6    -0.566605197730E+02    0.49970E-04   -0.25618E-03   160   0.207E-01    0.119E-01
DAV:   7    -0.566604483195E+02    0.71454E-04   -0.28317E-03   200   0.214E-01    0.780E-02
DAV:   8    -0.566603465027E+02    0.10182E-03   -0.88203E-04   120   0.127E-01    0.215E-02
DAV:   9    -0.566603307339E+02    0.15769E-04   -0.12305E-04   120   0.537E-02
  21 F= -.56660331E+02 E0= -.56593353E+02  d E =-.387765E-02
 summed vel is now -1.409462824231156E-018 -1.301042606982605E-018
 -4.336808689942018E-019
quench:  g(F)=  0.521E-03 g(S)=  0.000E+00 dE (1.order)=-0.455E-02
 bond charge predicted
       N       E                     dE             d eps       ncg     rms          rms(c)
DAV:   1    -0.566606249083E+02   -0.27841E-03   -0.23198E+00   160   0.454E+00    0.215E-01
DAV:   2    -0.566670676406E+02   -0.64427E-02   -0.78409E-02   240   0.118E+00    0.507E-01
DAV:   3    -0.566649810764E+02    0.20866E-02   -0.44668E-02   200   0.892E-01    0.245E-01
DAV:   4    -0.566639635181E+02    0.10176E-02   -0.99632E-03   200   0.351E-01    0.145E-01
DAV:   5    -0.566635991431E+02    0.36437E-03   -0.32163E-03   120   0.202E-01    0.103E-01
DAV:   6    -0.566635166020E+02    0.82541E-04   -0.27879E-03   120   0.202E-01    0.112E-01
DAV:   7    -0.566634605292E+02    0.56073E-04   -0.26015E-03   160   0.209E-01    0.788E-02
DAV:   8    -0.566633634245E+02    0.97105E-04   -0.10085E-03   120   0.141E-01    0.306E-02
DAV:   9    -0.566633461147E+02    0.17310E-04   -0.19841E-04   200   0.620E-02
  22 F= -.56663346E+02 E0= -.56596007E+02  d E =-.301538E-02
 summed vel is now  0.000000000000000E+000 -5.421010862427522E-019
  4.336808689942018E-019
quench:  g(F)=  0.746E-03 g(S)=  0.000E+00 dE (1.order)=-0.315E-02
 bond charge predicted
       N       E                     dE             d eps       ncg     rms          rms(c)
DAV:   1    -0.566646611312E+02   -0.12977E-02   -0.77671E-01   160   0.262E+00    0.138E-01
DAV:   2    -0.566667246546E+02   -0.20635E-02   -0.27489E-02   240   0.733E-01    0.265E-01
DAV:   3    -0.566659694734E+02    0.75518E-03   -0.15874E-02   240   0.572E-01    0.165E-01
DAV:   4    -0.566657294890E+02    0.23998E-03   -0.48017E-03   160   0.228E-01    0.951E-02
DAV:   5    -0.566655595964E+02    0.16989E-03   -0.12509E-03   120   0.125E-01    0.508E-02
DAV:   6    -0.566655515389E+02    0.80574E-05   -0.90048E-04   120   0.122E-01
  23 F= -.56665552E+02 E0= -.56598150E+02  d E =-.220542E-02
 summed vel is now -6.505213034913027E-019 -3.252606517456513E-019
 -2.168404344971009E-019
quench:  g(F)=  0.449E-03 g(S)=  0.000E+00 dE (1.order)=-0.214E-02
 bond charge predicted
       N       E                     dE             d eps       ncg     rms          rms(c)
DAV:   1    -0.566666999433E+02   -0.11403E-02   -0.59389E-01   160   0.230E+00    0.999E-02
DAV:   2    -0.566679671453E+02   -0.12672E-02   -0.14744E-02   240   0.512E-01    0.195E-01
DAV:   3    -0.566677227439E+02    0.24440E-03   -0.62469E-03   160   0.360E-01    0.109E-01
DAV:   4    -0.566675146439E+02    0.20810E-03   -0.16910E-03   120   0.153E-01    0.645E-02
DAV:   5    -0.566674308065E+02    0.83837E-04   -0.47891E-04   120   0.102E-01
  24 F= -.56667431E+02 E0= -.56600034E+02  d E =-.187927E-02
 summed vel is now -6.505213034913027E-019 -3.252606517456513E-019
 -6.505213034913027E-019
quench:  g(F)=  0.434E-03 g(S)=  0.000E+00 dE (1.order)=-0.272E-02
 bond charge predicted
       N       E                     dE             d eps       ncg     rms          rms(c)
DAV:   1    -0.566688066316E+02   -0.12920E-02   -0.99221E-01   160   0.297E+00    0.153E-01
DAV:   2    -0.566729135827E+02   -0.41070E-02   -0.47009E-02   240   0.789E-01    0.526E-01
DAV:   3    -0.566712479616E+02    0.16656E-02   -0.34930E-02   200   0.663E-01    0.159E-01
DAV:   4    -0.566701538252E+02    0.10941E-02   -0.48491E-03   160   0.251E-01    0.936E-02
DAV:   5    -0.566699963445E+02    0.15748E-03   -0.12846E-03   120   0.134E-01    0.696E-02
DAV:   6    -0.566699645480E+02    0.31796E-04   -0.13267E-03   120   0.157E-01    0.747E-02
DAV:   7    -0.566699144400E+02    0.50108E-04   -0.12180E-03   120   0.159E-01    0.440E-02
DAV:   8    -0.566698867540E+02    0.27686E-04   -0.41347E-04   120   0.102E-01
  25 F= -.56669887E+02 E0= -.56602578E+02  d E =-.245595E-02
 summed vel is now -4.336808689942018E-019  2.168404344971009E-019
  1.084202172485504E-018
quench:  g(F)=  0.434E-03 g(S)=  0.000E+00 dE (1.order)=-0.339E-02
 bond charge predicted
       N       E                     dE             d eps       ncg     rms          rms(c)
DAV:   1    -0.566710344106E+02   -0.11200E-02   -0.15341E+00   160   0.369E+00    0.149E-01
DAV:   2    -0.566742839596E+02   -0.32495E-02   -0.35694E-02   240   0.793E-01    0.304E-01
DAV:   3    -0.566738561928E+02    0.42777E-03   -0.15524E-02   200   0.514E-01    0.171E-01
DAV:   4    -0.566733197994E+02    0.53639E-03   -0.38119E-03   160   0.217E-01    0.918E-02
DAV:   5    -0.566731449040E+02    0.17490E-03   -0.18115E-03   120   0.163E-01    0.930E-02
DAV:   6    -0.566730963307E+02    0.48573E-04   -0.19298E-03   120   0.164E-01    0.844E-02
DAV:   7    -0.566730125981E+02    0.83733E-04   -0.11204E-03   120   0.148E-01    0.367E-02
DAV:   8    -0.566729853686E+02    0.27229E-04   -0.29776E-04   200   0.956E-02
  26 F= -.56672985E+02 E0= -.56605500E+02  d E =-.309861E-02
 summed vel is now -6.505213034913027E-019  1.951563910473908E-018
 -8.673617379884035E-019
quench:  g(F)=  0.453E-03 g(S)=  0.000E+00 dE (1.order)=-0.397E-02
 bond charge predicted
       N       E                     dE             d eps       ncg     rms          rms(c)
DAV:   1    -0.566739210610E+02   -0.90846E-03   -0.20173E+00   160   0.423E+00    0.168E-01
DAV:   2    -0.566776000248E+02   -0.36790E-02   -0.41533E-02   240   0.903E-01    0.237E-01
DAV:   3    -0.566769710549E+02    0.62897E-03   -0.10315E-02   240   0.537E-01    0.140E-01
DAV:   4    -0.566767494971E+02    0.22156E-03   -0.26523E-03   120   0.199E-01    0.109E-01
DAV:   5    -0.566766019384E+02    0.14756E-03   -0.16850E-03   120   0.172E-01    0.809E-02
DAV:   6    -0.566765310258E+02    0.70913E-04   -0.18396E-03   160   0.185E-01    0.792E-02
DAV:   7    -0.566764648871E+02    0.66139E-04   -0.11537E-03   120   0.158E-01    0.343E-02
DAV:   8    -0.566764352036E+02    0.29684E-04   -0.25760E-04   120   0.765E-02
  27 F= -.56676435E+02 E0= -.56608961E+02  d E =-.344983E-02
 summed vel is now  0.000000000000000E+000  4.336808689942018E-019
 -8.673617379884035E-019
quench:  g(F)=  0.535E-03 g(S)=  0.000E+00 dE (1.order)=-0.424E-02
 bond charge predicted
       N       E                     dE             d eps       ncg     rms          rms(c)
DAV:   1    -0.566772753028E+02   -0.81042E-03   -0.19555E+00   160   0.416E+00    0.194E-01
DAV:   2    -0.566816874549E+02   -0.44122E-02   -0.53577E-02   240   0.101E+00    0.355E-01
DAV:   3    -0.566806685045E+02    0.10190E-02   -0.24111E-02   200   0.727E-01    0.207E-01
DAV:   4    -0.566800909326E+02    0.57757E-03   -0.64080E-03   160   0.283E-01    0.123E-01
DAV:   5    -0.566797334098E+02    0.35752E-03   -0.20390E-03   120   0.184E-01    0.774E-02
DAV:   6    -0.566797973844E+02   -0.63975E-04   -0.31906E-03   240   0.216E-01    0.136E-01
DAV:   7    -0.566796748526E+02    0.12253E-03   -0.30883E-03   120   0.192E-01    0.666E-02
DAV:   8    -0.566795886890E+02    0.86164E-04   -0.72488E-04   120   0.125E-01
  28 F= -.56679589E+02 E0= -.56611830E+02  d E =-.315349E-02
 summed vel is now  0.000000000000000E+000  0.000000000000000E+000
  4.336808689942018E-019
quench:  g(F)=  0.682E-03 g(S)=  0.000E+00 dE (1.order)=-0.360E-02
 bond charge predicted
       N       E                     dE             d eps       ncg     rms          rms(c)
DAV:   1    -0.566808628915E+02   -0.11880E-02   -0.11062E+00   160   0.313E+00    0.156E-01
DAV:   2    -0.566833829886E+02   -0.25201E-02   -0.33002E-02   240   0.821E-01    0.253E-01
DAV:   3    -0.566824692117E+02    0.91378E-03   -0.13390E-02   240   0.610E-01    0.119E-01
DAV:   4    -0.566823060917E+02    0.16312E-03   -0.29082E-03   160   0.200E-01    0.102E-01
DAV:   5    -0.566821713125E+02    0.13478E-03   -0.13292E-03   120   0.133E-01    0.562E-02
DAV:   6    -0.566821477440E+02    0.23568E-04   -0.98439E-04   120   0.138E-01
  29 F= -.56682148E+02 E0= -.56614395E+02  d E =-.255906E-02
 summed vel is now  0.000000000000000E+000  7.589415207398531E-019
  4.336808689942018E-019
quench:  g(F)=  0.611E-03 g(S)=  0.000E+00 dE (1.order)=-0.286E-02
 bond charge predicted
       N       E                     dE             d eps       ncg     rms          rms(c)
DAV:   1    -0.566835353721E+02   -0.13641E-02   -0.78269E-01   160   0.263E+00    0.133E-01
DAV:   2    -0.566857009191E+02   -0.21655E-02   -0.26631E-02   240   0.692E-01    0.304E-01
DAV:   3    -0.566850559113E+02    0.64501E-03   -0.15131E-02   200   0.540E-01    0.144E-01
DAV:   4    -0.566845956311E+02    0.46028E-03   -0.30519E-03   160   0.204E-01    0.738E-02
DAV:   5    -0.566844588866E+02    0.13674E-03   -0.76928E-04   120   0.116E-01    0.528E-02
DAV:   6    -0.566844802514E+02   -0.21365E-04   -0.12942E-03   200   0.136E-01    0.809E-02
DAV:   7    -0.566844356699E+02    0.44582E-04   -0.10665E-03   120   0.122E-01    0.434E-02
DAV:   8    -0.566844101255E+02    0.25544E-04   -0.35582E-04   120   0.796E-02
  30 F= -.56684410E+02 E0= -.56616672E+02  d E =-.226238E-02
 summed vel is now  0.000000000000000E+000  2.168404344971009E-019
  1.084202172485504E-018
quench:  g(F)=  0.517E-03 g(S)=  0.000E+00 dE (1.order)=-0.303E-02
 bond charge predicted
       N       E                     dE             d eps       ncg     rms          rms(c)
DAV:   1    -0.566859392876E+02   -0.15036E-02   -0.10334E+00   160   0.301E+00    0.118E-01
DAV:   2    -0.566878442708E+02   -0.19050E-02   -0.21289E-02   240   0.623E-01    0.191E-01
DAV:   3    -0.566875991103E+02    0.24516E-03   -0.73765E-03   160   0.368E-01    0.131E-01
DAV:   4    -0.566874076667E+02    0.19144E-03   -0.26920E-03   120   0.184E-01    0.809E-02
DAV:   5    -0.566872875306E+02    0.12014E-03   -0.87861E-04   120   0.123E-01    0.545E-02
DAV:   6    -0.566872632820E+02    0.24249E-04   -0.84914E-04   120   0.130E-01
  31 F= -.56687263E+02 E0= -.56619629E+02  d E =-.285316E-02
 summed vel is now  2.168404344971009E-019  0.000000000000000E+000
  2.168404344971009E-019
quench:  g(F)=  0.577E-03 g(S)=  0.000E+00 dE (1.order)=-0.398E-02
 bond charge predicted
       N       E                     dE             d eps       ncg     rms          rms(c)
DAV:   1    -0.566887554985E+02   -0.14680E-02   -0.15975E+00   160   0.375E+00    0.147E-01
DAV:   2    -0.566916068643E+02   -0.28514E-02   -0.31356E-02   240   0.764E-01    0.220E-01
DAV:   3    -0.566913946307E+02    0.21223E-03   -0.10192E-02   240   0.444E-01    0.168E-01
DAV:   4    -0.566910397803E+02    0.35485E-03   -0.34253E-03   120   0.210E-01    0.907E-02
DAV:   5    -0.566908670629E+02    0.17272E-03   -0.12506E-03   120   0.165E-01    0.757E-02
DAV:   6    -0.566909187036E+02   -0.51641E-04   -0.25674E-03   240   0.185E-01    0.116E-01
DAV:   7    -0.566908067520E+02    0.11195E-03   -0.17563E-03   120   0.160E-01    0.292E-02
DAV:   8    -0.566907591192E+02    0.47633E-04   -0.20027E-04   120   0.700E-02
  32 F= -.56690759E+02 E0= -.56623138E+02  d E =-.349584E-02
 summed vel is now -6.505213034913027E-019  5.421010862427522E-019
 -4.336808689942018E-019
quench:  g(F)=  0.604E-03 g(S)=  0.000E+00 dE (1.order)=-0.469E-02
 bond charge predicted
       N       E                     dE             d eps       ncg     rms          rms(c)
DAV:   1    -0.566923339374E+02   -0.15272E-02   -0.21194E+00   160   0.432E+00    0.171E-01
DAV:   2    -0.566960872355E+02   -0.37533E-02   -0.42879E-02   240   0.911E-01    0.234E-01
DAV:   3    -0.566955483579E+02    0.53888E-03   -0.12529E-02   240   0.545E-01    0.173E-01
DAV:   4    -0.566953047364E+02    0.24362E-03   -0.48570E-03   160   0.247E-01    0.118E-01
DAV:   5    -0.566950805655E+02    0.22417E-03   -0.18419E-03   120   0.170E-01    0.751E-02
DAV:   6    -0.566949978593E+02    0.82706E-04   -0.14944E-03   160   0.180E-01    0.620E-02
DAV:   7    -0.566949343542E+02    0.63505E-04   -0.72322E-04   120   0.145E-01
  33 F= -.56694934E+02 E0= -.56627500E+02  d E =-.417523E-02
 summed vel is now -2.168404344971009E-019 -2.602085213965211E-018
  6.505213034913027E-019
quench:  g(F)=  0.724E-03 g(S)=  0.000E+00 dE (1.order)=-0.541E-02
 bond charge predicted
       N       E                     dE             d eps       ncg     rms          rms(c)
DAV:   1    -0.566965231258E+02   -0.15253E-02   -0.23533E+00   160   0.454E+00    0.205E-01
DAV:   2    -0.567016155684E+02   -0.50924E-02   -0.61085E-02   240   0.107E+00    0.372E-01
DAV:   3    -0.567005512709E+02    0.10643E-02   -0.27010E-02   200   0.746E-01    0.216E-01
DAV:   4    -0.566998591178E+02    0.69215E-03   -0.71893E-03   160   0.311E-01    0.131E-01
DAV:   5    -0.566995184021E+02    0.34072E-03   -0.21742E-03   120   0.198E-01    0.776E-02
DAV:   6    -0.566995004016E+02    0.18000E-04   -0.22661E-03   240   0.213E-01    0.107E-01
DAV:   7    -0.566994236480E+02    0.76754E-04   -0.23529E-03   120   0.187E-01    0.698E-02
DAV:   8    -0.566993529165E+02    0.70731E-04   -0.76981E-04   120   0.117E-01
  34 F= -.56699353E+02 E0= -.56631833E+02  d E =-.441856E-02
 summed vel is now  6.505213034913027E-019 -2.168404344971009E-019
  4.336808689942018E-019
quench:  g(F)=  0.841E-03 g(S)=  0.000E+00 dE (1.order)=-0.545E-02
 bond charge predicted
       N       E                     dE             d eps       ncg     rms          rms(c)
DAV:   1    -0.567012633763E+02   -0.18397E-02   -0.20584E+00   160   0.426E+00    0.192E-01
DAV:   2    -0.567055017508E+02   -0.42384E-02   -0.52731E-02   240   0.102E+00    0.308E-01
DAV:   3    -0.567043745826E+02    0.11272E-02   -0.20926E-02   240   0.724E-01    0.182E-01
DAV:   4    -0.567040349046E+02    0.33968E-03   -0.51830E-03   160   0.260E-01    0.121E-01
DAV:   5    -0.567037664056E+02    0.26850E-03   -0.18411E-03   120   0.171E-01    0.742E-02
DAV:   6    -0.567037063445E+02    0.60061E-04   -0.14979E-03   160   0.182E-01    0.724E-02
DAV:   7    -0.567036695339E+02    0.36811E-04   -0.13003E-03   120   0.153E-01    0.595E-02
DAV:   8    -0.567036308790E+02    0.38655E-04   -0.55338E-04   120   0.890E-02
  35 F= -.56703631E+02 E0= -.56636303E+02  d E =-.427796E-02
 summed vel is now  4.336808689942018E-019 -1.084202172485504E-018
  4.336808689942018E-019
quench:  g(F)=  0.898E-03 g(S)=  0.000E+00 dE (1.order)=-0.512E-02
 bond charge predicted
       N       E                     dE             d eps       ncg     rms          rms(c)
DAV:   1    -0.567059361478E+02   -0.22666E-02   -0.17020E+00   160   0.385E+00    0.184E-01
DAV:   2    -0.567098649208E+02   -0.39288E-02   -0.48944E-02   240   0.956E-01    0.352E-01
DAV:   3    -0.567088340595E+02    0.10309E-02   -0.24344E-02   200   0.699E-01    0.193E-01
DAV:   4    -0.567082508096E+02    0.58325E-03   -0.63598E-03   160   0.293E-01    0.115E-01
DAV:   5    -0.567079814324E+02    0.26938E-03   -0.17198E-03   120   0.176E-01    0.635E-02
DAV:   6    -0.567079481612E+02    0.33271E-04   -0.13497E-03   240   0.183E-01    0.727E-02
DAV:   7    -0.567078965764E+02    0.51585E-04   -0.11176E-03   120   0.150E-01    0.504E-02
DAV:   8    -0.567078681519E+02    0.28425E-04   -0.43642E-04   120   0.841E-02
  36 F= -.56707868E+02 E0= -.56640560E+02  d E =-.423727E-02
 summed vel is now  0.000000000000000E+000  7.589415207398531E-019
 -1.301042606982605E-018
quench:  g(F)=  0.887E-03 g(S)=  0.000E+00 dE (1.order)=-0.529E-02
 bond charge predicted
       N       E                     dE             d eps       ncg     rms          rms(c)
DAV:   1    -0.567104690997E+02   -0.25725E-02   -0.18383E+00   160   0.401E+00    0.165E-01
DAV:   2    -0.567137858768E+02   -0.33168E-02   -0.38992E-02   240   0.879E-01    0.233E-01
DAV:   3    -0.567131790284E+02    0.60685E-03   -0.12233E-02   240   0.555E-01    0.152E-01
DAV:   4    -0.567129422652E+02    0.23676E-03   -0.37750E-03   160   0.223E-01    0.106E-01
DAV:   5    -0.567127614514E+02    0.18081E-03   -0.15401E-03   120   0.155E-01    0.730E-02
DAV:   6    -0.567127191621E+02    0.42289E-04   -0.14635E-03   160   0.172E-01    0.738E-02
DAV:   7    -0.567126690130E+02    0.50149E-04   -0.11991E-03   120   0.149E-01    0.485E-02
DAV:   8    -0.567126353848E+02    0.33628E-04   -0.37597E-04   120   0.813E-02
  37 F= -.56712635E+02 E0= -.56645522E+02  d E =-.476723E-02
 summed vel is now  2.168404344971009E-019  1.626303258728257E-018
 -4.336808689942018E-019
quench:  g(F)=  0.935E-03 g(S)=  0.000E+00 dE (1.order)=-0.628E-02
 bond charge predicted
       N       E                     dE             d eps       ncg     rms          rms(c)
DAV:   1    -0.567155765240E+02   -0.29075E-02   -0.24567E+00   160   0.462E+00    0.198E-01
DAV:   2    -0.567202973779E+02   -0.47209E-02   -0.55450E-02   240   0.103E+00    0.323E-01
DAV:   3    -0.567195658766E+02    0.73150E-03   -0.21914E-02   240   0.662E-01    0.206E-01
DAV:   4    -0.567189668404E+02    0.59904E-03   -0.69622E-03   160   0.298E-01    0.127E-01
DAV:   5    -0.567186812867E+02    0.28555E-03   -0.23862E-03   120   0.206E-01    0.825E-02
DAV:   6    -0.567186137675E+02    0.67519E-04   -0.21212E-03   200   0.227E-01    0.817E-02
DAV:   7    -0.567185150795E+02    0.98688E-04   -0.12972E-03   200   0.176E-01    0.380E-02
DAV:   8    -0.567184888845E+02    0.26195E-04   -0.27033E-04   120   0.770E-02
  38 F= -.56718489E+02 E0= -.56651495E+02  d E =-.585350E-02
 summed vel is now  0.000000000000000E+000  2.168404344971009E-019
  8.673617379884035E-019
quench:  g(F)=  0.102E-02 g(S)=  0.000E+00 dE (1.order)=-0.751E-02
 bond charge predicted
       N       E                     dE             d eps       ncg     rms          rms(c)
DAV:   1    -0.567215989902E+02   -0.30839E-02   -0.32351E+00   160   0.532E+00    0.219E-01
DAV:   2    -0.567273562196E+02   -0.57572E-02   -0.66282E-02   240   0.119E+00    0.297E-01
DAV:   3    -0.567264654243E+02    0.89080E-03   -0.19017E-02   240   0.700E-01    0.202E-01
DAV:   4    -0.567260277849E+02    0.43764E-03   -0.60971E-03   160   0.278E-01    0.131E-01
DAV:   5    -0.567257168926E+02    0.31089E-03   -0.26752E-03   120   0.199E-01    0.102E-01
DAV:   6    -0.567256563254E+02    0.60567E-04   -0.30193E-03   200   0.240E-01    0.107E-01
DAV:   7    -0.567255453399E+02    0.11099E-03   -0.23972E-03   120   0.207E-01    0.627E-02
DAV:   8    -0.567254788568E+02    0.66483E-04   -0.65037E-04   120   0.109E-01
  39 F= -.56725479E+02 E0= -.56658801E+02  d E =-.698997E-02
 summed vel is now -4.336808689942018E-019  4.336808689942018E-019
 -1.734723475976807E-018
quench:  g(F)=  0.121E-02 g(S)=  0.000E+00 dE (1.order)=-0.883E-02
 bond charge predicted
       N       E                     dE             d eps       ncg     rms          rms(c)
DAV:   1    -0.567288028463E+02   -0.32575E-02   -0.37521E+00   160   0.572E+00    0.267E-01
DAV:   2    -0.567368082527E+02   -0.80054E-02   -0.98107E-02   240   0.141E+00    0.459E-01
DAV:   3    -0.567349915567E+02    0.18167E-02   -0.45217E-02   240   0.959E-01    0.274E-01
DAV:   4    -0.567339496598E+02    0.10419E-02   -0.13106E-02   200   0.417E-01    0.165E-01
DAV:   5    -0.567334650654E+02    0.48459E-03   -0.39248E-03   160   0.262E-01    0.957E-02
DAV:   6    -0.567333672566E+02    0.97809E-04   -0.30472E-03   200   0.271E-01    0.106E-01
DAV:   7    -0.567332219815E+02    0.14528E-03   -0.23718E-03   200   0.224E-01    0.652E-02
DAV:   8    -0.567331684267E+02    0.53555E-04   -0.71173E-04   120   0.119E-01
  40 F= -.56733168E+02 E0= -.56666582E+02  d E =-.768957E-02
 summed vel is now -1.301042606982605E-018 -4.336808689942018E-019
  2.602085213965211E-018
quench:  g(F)=  0.147E-02 g(S)=  0.000E+00 dE (1.order)=-0.941E-02
 bond charge predicted
       N       E                     dE             d eps       ncg     rms          rms(c)
DAV:   1    -0.567367604863E+02   -0.35385E-02   -0.35239E+00   160   0.556E+00    0.259E-01
DAV:   2    -0.567445460458E+02   -0.77856E-02   -0.94893E-02   240   0.142E+00    0.460E-01
DAV:   3    -0.567424998450E+02    0.20462E-02   -0.43952E-02   200   0.984E-01    0.270E-01
DAV:   4    -0.567415788031E+02    0.92104E-03   -0.10773E-02   200   0.367E-01    0.142E-01
DAV:   5    -0.567410668615E+02    0.51194E-03   -0.29874E-03   160   0.219E-01    0.989E-02
DAV:   6    -0.567410118036E+02    0.55058E-04   -0.30454E-03   160   0.243E-01    0.113E-01
DAV:   7    -0.567408693586E+02    0.14245E-03   -0.26518E-03   120   0.220E-01    0.603E-02
DAV:   8    -0.567408052675E+02    0.64091E-04   -0.67582E-04   120   0.123E-01
  41 F= -.56740805E+02 E0= -.56674703E+02  d E =-.763684E-02
 summed vel is now  1.084202172485504E-019 -6.505213034913027E-019
 -2.168404344971009E-019
quench:  g(F)=  0.167E-02 g(S)=  0.000E+00 dE (1.order)=-0.939E-02
 bond charge predicted
       N       E                     dE             d eps       ncg     rms          rms(c)
DAV:   1    -0.567451358605E+02   -0.42665E-02   -0.30828E+00   160   0.519E+00    0.257E-01
DAV:   2    -0.567521617191E+02   -0.70259E-02   -0.88489E-02   240   0.135E+00    0.454E-01
DAV:   3    -0.567501932230E+02    0.19685E-02   -0.42630E-02   200   0.964E-01    0.251E-01
DAV:   4    -0.567492769465E+02    0.91628E-03   -0.11966E-02   200   0.398E-01    0.158E-01
DAV:   5    -0.567488313494E+02    0.44560E-03   -0.35789E-03   160   0.246E-01    0.870E-02
DAV:   6    -0.567487517341E+02    0.79615E-04   -0.26210E-03   280   0.248E-01    0.994E-02
DAV:   7    -0.567486354732E+02    0.11626E-03   -0.21071E-03   160   0.207E-01    0.620E-02
DAV:   8    -0.567485859082E+02    0.49565E-04   -0.63666E-04   120   0.116E-01
  42 F= -.56748586E+02 E0= -.56682559E+02  d E =-.778064E-02
 summed vel is now -1.084202172485504E-018 -8.673617379884035E-019
 -8.673617379884035E-019
quench:  g(F)=  0.160E-02 g(S)=  0.000E+00 dE (1.order)=-0.942E-02
 bond charge predicted
       N       E                     dE             d eps       ncg     rms          rms(c)
DAV:   1    -0.567532475492E+02   -0.46121E-02   -0.32403E+00   160   0.533E+00    0.238E-01
DAV:   2    -0.567598561723E+02   -0.66086E-02   -0.78158E-02   240   0.129E+00    0.399E-01
DAV:   3    -0.567584420479E+02    0.14141E-02   -0.32082E-02   200   0.860E-01    0.247E-01
DAV:   4    -0.567576725531E+02    0.76949E-03   -0.82292E-03   200   0.328E-01    0.130E-01
DAV:   5    -0.567572352781E+02    0.43728E-03   -0.27148E-03   160   0.212E-01    0.995E-02
DAV:   6    -0.567572154396E+02    0.19839E-04   -0.33489E-03   160   0.246E-01    0.118E-01
DAV:   7    -0.567570604750E+02    0.15496E-03   -0.27759E-03   120   0.220E-01    0.569E-02
DAV:   8    -0.567569956802E+02    0.64795E-04   -0.61017E-04   120   0.120E-01
  43 F= -.56756996E+02 E0= -.56691417E+02  d E =-.840977E-02
 summed vel is now  2.168404344971009E-019 -1.409462824231156E-018
 -1.084202172485504E-018
quench:  g(F)=  0.171E-02 g(S)=  0.000E+00 dE (1.order)=-0.110E-01
 bond charge predicted
       N       E                     dE             d eps       ncg     rms          rms(c)
DAV:   1    -0.567621689672E+02   -0.51085E-02   -0.41158E+00   160   0.600E+00    0.277E-01
DAV:   2    -0.567702511856E+02   -0.80822E-02   -0.98418E-02   240   0.145E+00    0.414E-01
DAV:   3    -0.567685836284E+02    0.16676E-02   -0.38207E-02   240   0.939E-01    0.256E-01
DAV:   4    -0.567677256062E+02    0.85802E-03   -0.11561E-02   200   0.411E-01    0.170E-01
DAV:   5    -0.567673085451E+02    0.41706E-03   -0.44673E-03   160   0.274E-01    0.111E-01
DAV:   6    -0.567672062302E+02    0.10231E-03   -0.38225E-03   200   0.287E-01    0.121E-01
DAV:   7    -0.567670451745E+02    0.16106E-03   -0.28755E-03   200   0.241E-01    0.726E-02
DAV:   8    -0.567669704701E+02    0.74704E-04   -0.87893E-04   120   0.139E-01
  44 F= -.56766970E+02 E0= -.56701577E+02  d E =-.997479E-02
 summed vel is now  1.301042606982605E-018  4.336808689942018E-019
  4.336808689942018E-019
quench:  g(F)=  0.177E-02 g(S)=  0.000E+00 dE (1.order)=-0.126E-01
 bond charge predicted
       N       E                     dE             d eps       ncg     rms          rms(c)
DAV:   1    -0.567721374321E+02   -0.50923E-02   -0.51935E+00   160   0.675E+00    0.309E-01
DAV:   2    -0.567830500194E+02   -0.10913E-01   -0.12786E-01   240   0.169E+00    0.529E-01
DAV:   3    -0.567806616645E+02    0.23884E-02   -0.52402E-02   200   0.110E+00    0.319E-01
DAV:   4    -0.567793302593E+02    0.13314E-02   -0.12403E-02   200   0.416E-01    0.163E-01
DAV:   5    -0.567786791925E+02    0.65107E-03   -0.46627E-03   160   0.278E-01    0.137E-01
DAV:   6    -0.567786583549E+02    0.20838E-04   -0.62367E-03   280   0.324E-01    0.155E-01
DAV:   7    -0.567783635737E+02    0.29478E-03   -0.45480E-03   160   0.285E-01    0.661E-02
DAV:   8    -0.567782641817E+02    0.99392E-04   -0.86198E-04   120   0.141E-01
  45 F= -.56778264E+02 E0= -.56713355E+02  d E =-.112937E-01
 summed vel is now  3.252606517456513E-019 -5.637851296924623E-018
  0.000000000000000E+000
quench:  g(F)=  0.201E-02 g(S)=  0.000E+00 dE (1.order)=-0.141E-01
 bond charge predicted
       N       E                     dE             d eps       ncg     rms          rms(c)
DAV:   1    -0.567833803087E+02   -0.50167E-02   -0.58033E+00   160   0.713E+00    0.351E-01
DAV:   2    -0.567957860016E+02   -0.12406E-01   -0.15594E-01   240   0.185E+00    0.551E-01
DAV:   3    -0.567925170377E+02    0.32690E-02   -0.65976E-02   240   0.125E+00    0.318E-01
DAV:   4    -0.567912328951E+02    0.12841E-02   -0.17624E-02   200   0.525E-01    0.209E-01
DAV:   5    -0.567906326261E+02    0.60027E-03   -0.64680E-03   160   0.337E-01    0.135E-01
DAV:   6    -0.567905005274E+02    0.13210E-03   -0.54665E-03   200   0.341E-01    0.150E-01
DAV:   7    -0.567902815987E+02    0.21893E-03   -0.43856E-03   240   0.294E-01    0.892E-02
DAV:   8    -0.567901451976E+02    0.13640E-03   -0.13241E-03   120   0.168E-01    0.372E-02
DAV:   9    -0.567901197487E+02    0.25449E-04   -0.32666E-04   120   0.818E-02
  46 F= -.56790120E+02 E0= -.56725417E+02  d E =-.118556E-01
 summed vel is now  1.084202172485504E-018  6.505213034913027E-019
 -8.673617379884035E-019
quench:  g(F)=  0.221E-02 g(S)=  0.000E+00 dE (1.order)=-0.140E-01
 bond charge predicted
       N       E                     dE             d eps       ncg     rms          rms(c)
DAV:   1    -0.567952029973E+02   -0.50578E-02   -0.52151E+00   160   0.678E+00    0.340E-01
DAV:   2    -0.568083197157E+02   -0.13117E-01   -0.15601E-01   240   0.187E+00    0.676E-01
DAV:   3    -0.568041628202E+02    0.41569E-02   -0.75494E-02   200   0.132E+00    0.356E-01
DAV:   4    -0.568023133919E+02    0.18494E-02   -0.15548E-02   200   0.481E-01    0.173E-01
DAV:   5    -0.568015228870E+02    0.79050E-03   -0.47625E-03   160   0.289E-01    0.130E-01
DAV:   6    -0.568014996479E+02    0.23239E-04   -0.58899E-03   280   0.324E-01    0.153E-01
DAV:   7    -0.568012057776E+02    0.29387E-03   -0.43738E-03   160   0.283E-01    0.620E-02
DAV:   8    -0.568011132028E+02    0.92575E-04   -0.76914E-04   120   0.139E-01
  47 F= -.56801113E+02 E0= -.56736837E+02  d E =-.109935E-01
 summed vel is now -8.673617379884035E-019 -9.215718466126788E-019
 -4.336808689942018E-019
quench:  g(F)=  0.228E-02 g(S)=  0.000E+00 dE (1.order)=-0.126E-01
 bond charge predicted
       N       E                     dE             d eps       ncg     rms          rms(c)
DAV:   1    -0.568065714545E+02   -0.53657E-02   -0.40693E+00   160   0.597E+00    0.307E-01
DAV:   2    -0.568154503716E+02   -0.88789E-02   -0.11359E-01   240   0.155E+00    0.486E-01
DAV:   3    -0.568129262665E+02    0.25241E-02   -0.50823E-02   240   0.111E+00    0.285E-01
DAV:   4    -0.568119195065E+02    0.10068E-02   -0.13660E-02   200   0.475E-01    0.180E-01
DAV:   5    -0.568114218884E+02    0.49762E-03   -0.45460E-03   160   0.290E-01    0.112E-01
DAV:   6    -0.568113673255E+02    0.54563E-04   -0.39849E-03   160   0.288E-01    0.131E-01
DAV:   7    -0.568111982298E+02    0.16910E-03   -0.31746E-03   240   0.248E-01    0.702E-02
DAV:   8    -0.568111007942E+02    0.97436E-04   -0.85125E-04   120   0.140E-01
  48 F= -.56811101E+02 E0= -.56746858E+02  d E =-.998759E-02
 summed vel is now -5.421010862427522E-019 -2.385244779468110E-018
  1.301042606982605E-018
quench:  g(F)=  0.203E-02 g(S)=  0.000E+00 dE (1.order)=-0.115E-01
 bond charge predicted
       N       E                     dE             d eps       ncg     rms          rms(c)
DAV:   1    -0.568165159243E+02   -0.53177E-02   -0.38253E+00   160   0.580E+00    0.289E-01
DAV:   2    -0.568260072412E+02   -0.94913E-02   -0.11006E-01   240   0.155E+00    0.580E-01
DAV:   3    -0.568230688318E+02    0.29384E-02   -0.51770E-02   200   0.111E+00    0.297E-01
DAV:   4    -0.568216854071E+02    0.13834E-02   -0.98940E-03   200   0.399E-01    0.148E-01
DAV:   5    -0.568211299309E+02    0.55548E-03   -0.38589E-03   160   0.262E-01    0.120E-01
DAV:   6    -0.568210530938E+02    0.76837E-04   -0.43001E-03   160   0.280E-01    0.118E-01
DAV:   7    -0.568208557705E+02    0.19732E-03   -0.26810E-03   160   0.231E-01    0.476E-02
DAV:   8    -0.568207998320E+02    0.55938E-04   -0.44133E-04   120   0.113E-01
  49 F= -.56820800E+02 E0= -.56756919E+02  d E =-.969904E-02
 summed vel is now -6.505213034913027E-019 -9.757819552369540E-019
  6.505213034913027E-019
quench:  g(F)=  0.186E-02 g(S)=  0.000E+00 dE (1.order)=-0.119E-01
 bond charge predicted
       N       E                     dE             d eps       ncg     rms          rms(c)
DAV:   1    -0.568258146230E+02   -0.49589E-02   -0.43865E+00   160   0.619E+00    0.295E-01
DAV:   2    -0.568343163535E+02   -0.85017E-02   -0.10486E-01   240   0.149E+00    0.413E-01
DAV:   3    -0.568324291991E+02    0.18872E-02   -0.38849E-02   240   0.973E-01    0.249E-01
DAV:   4    -0.568316301563E+02    0.79904E-03   -0.10407E-02   200   0.420E-01    0.163E-01
DAV:   5    -0.568312778379E+02    0.35232E-03   -0.43201E-03   160   0.287E-01    0.126E-01
DAV:   6    -0.568312078618E+02    0.69976E-04   -0.40517E-03   200   0.298E-01    0.134E-01
DAV:   7    -0.568310030791E+02    0.20478E-03   -0.27729E-03   120   0.251E-01    0.683E-02
DAV:   8    -0.568309189672E+02    0.84112E-04   -0.80902E-04   120   0.144E-01
  50 F= -.56830919E+02 E0= -.56767158E+02  d E =-.101191E-01
 summed vel is now  1.734723475976807E-018  1.517883041479706E-018
 -1.734723475976807E-018
quench:  g(F)=  0.170E-02 g(S)=  0.000E+00 dE (1.order)=-0.119E-01
 bond charge predicted
       N       E                     dE             d eps       ncg     rms          rms(c)
DAV:   1    -0.568349626083E+02   -0.39595E-02   -0.48924E+00   160   0.657E+00    0.327E-01
DAV:   2    -0.568470269581E+02   -0.12064E-01   -0.13777E-01   280   0.174E+00    0.644E-01
DAV:   3    -0.568433623132E+02    0.36646E-02   -0.60469E-02   200   0.122E+00    0.335E-01
DAV:   4    -0.568416745166E+02    0.16878E-02   -0.11267E-02   200   0.445E-01    0.169E-01
DAV:   5    -0.568409993372E+02    0.67518E-03   -0.49279E-03   160   0.301E-01    0.139E-01
DAV:   6    -0.568408727365E+02    0.12660E-03   -0.53939E-03   160   0.319E-01    0.130E-01
DAV:   7    -0.568406116379E+02    0.26110E-03   -0.31634E-03   160   0.257E-01    0.489E-02
DAV:   8    -0.568405470061E+02    0.64632E-04   -0.45811E-04   200   0.122E-01
  51 F= -.56840547E+02 E0= -.56777121E+02  d E =-.962804E-02
 summed vel is now -3.252606517456513E-019 -3.252606517456513E-018
 -8.673617379884035E-019
quench:  g(F)=  0.164E-02 g(S)=  0.000E+00 dE (1.order)=-0.108E-01
 bond charge predicted
       N       E                     dE             d eps       ncg     rms          rms(c)
DAV:   1    -0.568435382007E+02   -0.29266E-02   -0.41171E+00   160   0.601E+00    0.301E-01
DAV:   2    -0.568522209122E+02   -0.86827E-02   -0.10864E-01   240   0.152E+00    0.459E-01
DAV:   3    -0.568500010550E+02    0.22199E-02   -0.43401E-02   240   0.107E+00    0.277E-01
DAV:   4    -0.568490918205E+02    0.90923E-03   -0.11095E-02   200   0.451E-01    0.179E-01
DAV:   5    -0.568486117956E+02    0.48002E-03   -0.39969E-03   160   0.286E-01    0.115E-01
DAV:   6    -0.568485374042E+02    0.74391E-04   -0.38805E-03   200   0.290E-01    0.129E-01
DAV:   7    -0.568483348330E+02    0.20257E-03   -0.29247E-03   160   0.248E-01    0.628E-02
DAV:   8    -0.568482569844E+02    0.77849E-04   -0.74246E-04   120   0.133E-01
  52 F= -.56848257E+02 E0= -.56784862E+02  d E =-.770998E-02
 summed vel is now  0.000000000000000E+000 -3.252606517456513E-019
  8.673617379884035E-019
quench:  g(F)=  0.153E-02 g(S)=  0.000E+00 dE (1.order)=-0.780E-02
 bond charge predicted
       N       E                     dE             d eps       ncg     rms          rms(c)
DAV:   1    -0.568512813390E+02   -0.29465E-02   -0.23397E+00   160   0.455E+00    0.249E-01
DAV:   2    -0.568581592840E+02   -0.68779E-02   -0.78983E-02   280   0.131E+00    0.538E-01
DAV:   3    -0.568555528603E+02    0.26064E-02   -0.38325E-02   200   0.101E+00    0.257E-01
DAV:   4    -0.568543683318E+02    0.11845E-02   -0.68151E-03   200   0.358E-01    0.125E-01
DAV:   5    -0.568539326442E+02    0.43569E-03   -0.23984E-03   120   0.222E-01    0.951E-02
DAV:   6    -0.568538831905E+02    0.49454E-04   -0.26076E-03   160   0.229E-01    0.895E-02
DAV:   7    -0.568537762200E+02    0.10697E-03   -0.15900E-03   160   0.179E-01    0.370E-02
DAV:   8    -0.568537425892E+02    0.33631E-04   -0.25840E-04   200   0.902E-02
  53 F= -.56853743E+02 E0= -.56790636E+02  d E =-.548560E-02
 summed vel is now -2.168404344971009E-019 -5.963111948670274E-019
  1.301042606982605E-018
quench:  g(F)=  0.108E-02 g(S)=  0.000E+00 dE (1.order)=-0.545E-02
 bond charge predicted
       N       E                     dE             d eps       ncg     rms          rms(c)
DAV:   1    -0.568563065335E+02   -0.25303E-02   -0.15963E+00   160   0.374E+00    0.178E-01
DAV:   2    -0.568593450517E+02   -0.30385E-02   -0.37031E-02   240   0.857E-01    0.247E-01
DAV:   3    -0.568587413238E+02    0.60373E-03   -0.13405E-02   240   0.597E-01    0.165E-01
DAV:   4    -0.568584170170E+02    0.32431E-03   -0.37151E-03   160   0.266E-01    0.104E-01
DAV:   5    -0.568582454706E+02    0.17155E-03   -0.12560E-03   120   0.168E-01    0.710E-02
DAV:   6    -0.568582488489E+02   -0.33783E-05   -0.15295E-03   160   0.187E-01    0.850E-02
DAV:   7    -0.568581597664E+02    0.89082E-04   -0.11174E-03   120   0.158E-01    0.335E-02
DAV:   8    -0.568581359629E+02    0.23803E-04   -0.21548E-04   120   0.802E-02
  54 F= -.56858136E+02 E0= -.56795053E+02  d E =-.439337E-02
 summed vel is now  0.000000000000000E+000 -4.336808689942018E-019
  0.000000000000000E+000
quench:  g(F)=  0.831E-03 g(S)=  0.000E+00 dE (1.order)=-0.512E-02
 bond charge predicted
       N       E                     dE             d eps       ncg     rms          rms(c)
DAV:   1    -0.568603279205E+02   -0.21682E-02   -0.18437E+00   160   0.403E+00    0.193E-01
DAV:   2    -0.568645002984E+02   -0.41724E-02   -0.46975E-02   280   0.980E-01    0.358E-01
DAV:   3    -0.568634099948E+02    0.10903E-02   -0.18716E-02   200   0.694E-01    0.188E-01
DAV:   4    -0.568628025489E+02    0.60745E-03   -0.31552E-03   160   0.252E-01    0.104E-01
DAV:   5    -0.568625845758E+02    0.21797E-03   -0.17162E-03   120   0.184E-01    0.912E-02
DAV:   6    -0.568625198035E+02    0.64772E-04   -0.18967E-03   160   0.200E-01    0.720E-02
DAV:   7    -0.568624349451E+02    0.84858E-04   -0.10253E-03   120   0.155E-01    0.322E-02
DAV:   8    -0.568624154401E+02    0.19505E-04   -0.21749E-04   120   0.840E-02
  55 F= -.56862415E+02 E0= -.56799549E+02  d E =-.427948E-02
 summed vel is now  3.252606517456513E-019  6.505213034913027E-019
  4.336808689942018E-019
quench:  g(F)=  0.662E-03 g(S)=  0.000E+00 dE (1.order)=-0.498E-02
 bond charge predicted
       N       E                     dE             d eps       ncg     rms          rms(c)
DAV:   1    -0.568637319320E+02   -0.12970E-02   -0.21699E+00   160   0.437E+00    0.200E-01
DAV:   2    -0.568676774747E+02   -0.39455E-02   -0.47126E-02   240   0.957E-01    0.257E-01
DAV:   3    -0.568669964012E+02    0.68107E-03   -0.16017E-02   240   0.618E-01    0.169E-01
DAV:   4    -0.568666173412E+02    0.37906E-03   -0.43597E-03   160   0.277E-01    0.101E-01
DAV:   5    -0.568664502639E+02    0.16708E-03   -0.16192E-03   120   0.193E-01    0.882E-02
DAV:   6    -0.568664668917E+02   -0.16628E-04   -0.18325E-03   160   0.215E-01    0.105E-01
DAV:   7    -0.568663415391E+02    0.12535E-03   -0.12635E-03   120   0.182E-01    0.382E-02
DAV:   8    -0.568663034659E+02    0.38073E-04   -0.24733E-04   120   0.887E-02
  56 F= -.56866303E+02 E0= -.56803573E+02  d E =-.388803E-02
 summed vel is now -2.168404344971009E-019  5.963111948670274E-019
  4.336808689942018E-019
quench:  g(F)=  0.579E-03 g(S)=  0.000E+00 dE (1.order)=-0.420E-02
 bond charge predicted
       N       E                     dE             d eps       ncg     rms          rms(c)
DAV:   1    -0.568670096782E+02   -0.66814E-03   -0.17880E+00   160   0.399E+00    0.212E-01
DAV:   2    -0.568718956586E+02   -0.48860E-02   -0.56295E-02   280   0.110E+00    0.430E-01
DAV:   3    -0.568701744232E+02    0.17212E-02   -0.25370E-02   200   0.833E-01    0.203E-01
DAV:   4    -0.568693801377E+02    0.79429E-03   -0.39001E-03   160   0.287E-01    0.111E-01
DAV:   5    -0.568691015398E+02    0.27860E-03   -0.17505E-03   120   0.192E-01    0.888E-02
DAV:   6    -0.568690352271E+02    0.66313E-04   -0.16991E-03   120   0.195E-01    0.732E-02
DAV:   7    -0.568689756730E+02    0.59554E-04   -0.13401E-03   160   0.173E-01    0.422E-02
DAV:   8    -0.568689439676E+02    0.31705E-04   -0.33207E-04   120   0.943E-02
  57 F= -.56868944E+02 E0= -.56806460E+02  d E =-.264050E-02
 summed vel is now -1.626303258728257E-019 -5.963111948670274E-019
  2.168404344971009E-019
quench:  g(F)=  0.557E-03 g(S)=  0.000E+00 dE (1.order)=-0.245E-02
 bond charge predicted
       N       E                     dE             d eps       ncg     rms          rms(c)
DAV:   1    -0.568698589625E+02   -0.88329E-03   -0.62626E-01   160   0.235E+00    0.124E-01
DAV:   2    -0.568712516425E+02   -0.13927E-02   -0.17728E-02   240   0.606E-01    0.193E-01
DAV:   3    -0.568708262678E+02    0.42537E-03   -0.68170E-03   240   0.459E-01    0.116E-01
DAV:   4    -0.568706787125E+02    0.14756E-03   -0.15828E-03   120   0.186E-01    0.760E-02
DAV:   5    -0.568705732534E+02    0.10546E-03   -0.55735E-04   120   0.127E-01    0.393E-02
DAV:   6    -0.568705761102E+02   -0.28568E-05   -0.61798E-04   120   0.124E-01
  58 F= -.56870576E+02 E0= -.56808193E+02  d E =-.163214E-02
 summed vel is now -2.168404344971009E-019  1.084202172485504E-019
 -2.168404344971009E-019
quench:  g(F)=  0.320E-03 g(S)=  0.000E+00 dE (1.order)=-0.142E-02
 bond charge predicted
       N       E                     dE             d eps       ncg     rms          rms(c)
DAV:   1    -0.568711895171E+02   -0.61626E-03   -0.36982E-01   160   0.182E+00    0.937E-02
DAV:   2    -0.568721474321E+02   -0.95792E-03   -0.10391E-02   280   0.508E-01    0.184E-01
DAV:   3    -0.568718485125E+02    0.29892E-03   -0.41719E-03   160   0.348E-01    0.931E-02
DAV:   4    -0.568716989940E+02    0.14952E-03   -0.74445E-04   120   0.130E-01    0.482E-02
DAV:   5    -0.568716508942E+02    0.48100E-04   -0.37097E-04   120   0.941E-02
  59 F= -.56871651E+02 E0= -.56809450E+02  d E =-.107478E-02
 summed vel is now  0.000000000000000E+000  4.878909776184770E-019
 -2.168404344971009E-019
quench:  g(F)=  0.238E-03 g(S)=  0.000E+00 dE (1.order)=-0.137E-02
 bond charge predicted
       N       E                     dE             d eps       ncg     rms          rms(c)
DAV:   1    -0.568722361782E+02   -0.53718E-03   -0.45952E-01   160   0.202E+00    0.103E-01
DAV:   2    -0.568731284678E+02   -0.89229E-03   -0.10956E-02   240   0.450E-01    0.143E-01
DAV:   3    -0.568728815751E+02    0.24689E-03   -0.42139E-03   160   0.330E-01    0.809E-02
DAV:   4    -0.568727871925E+02    0.94383E-04   -0.10169E-03   120   0.138E-01    0.494E-02
DAV:   5    -0.568727327294E+02    0.54463E-04   -0.47919E-04   120   0.115E-01
  60 F= -.56872733E+02 E0= -.56810483E+02  d E =-.108184E-02
 summed vel is now  4.878909776184770E-019  5.421010862427522E-019
 -6.505213034913027E-019
quench:  g(F)=  0.203E-03 g(S)=  0.000E+00 dE (1.order)=-0.133E-02
 bond charge predicted
       N       E                     dE             d eps       ncg     rms          rms(c)
DAV:   1    -0.568730911654E+02   -0.30397E-03   -0.50761E-01   160   0.214E+00    0.121E-01
DAV:   2    -0.568748268633E+02   -0.17357E-02   -0.20193E-02   280   0.646E-01    0.278E-01
DAV:   3    -0.568740335763E+02    0.79329E-03   -0.10518E-02   200   0.507E-01    0.951E-02
DAV:   4    -0.568737422860E+02    0.29129E-03   -0.10638E-03   120   0.150E-01    0.653E-02
DAV:   5    -0.568736830825E+02    0.59204E-04   -0.53115E-04   120   0.116E-01
  61 F= -.56873683E+02 E0= -.56811839E+02  d E =-.950353E-03
 summed vel is now  0.000000000000000E+000  0.000000000000000E+000
  4.336808689942018E-019
quench:  g(F)=  0.184E-03 g(S)=  0.000E+00 dE (1.order)=-0.106E-02
 reached required accuracy - stopping structural energy minimisation
