 vasp.5.4.1 05Feb16 (build Nov 22 2018 20:17:51) complex                        
  
 POSCAR found type information on POSCAR  Pd H 
 02/POSCAR found :  2 types and       5 ions
 scaLAPACK will be used

 ----------------------------------------------------------------------------- 
|                                                                             |
|           W    W    AA    RRRRR   N    N  II  N    N   GGGG   !!!           |
|           W    W   A  A   R    R  NN   N  II  NN   N  G    G  !!!           |
|           W    W  A    A  R    R  N N  N  II  N N  N  G       !!!           |
|           W WW W  AAAAAA  RRRRR   N  N N  II  N  N N  G  GGG   !            |
|           WW  WW  A    A  R   R   N   NN  II  N   NN  G    G                |
|           W    W  A    A  R    R  N    N  II  N    N   GGGG   !!!           |
|                                                                             |
|      For optimal performance we recommend to set                            |
|        NCORE= 4 - approx SQRT( number of cores)                             |
|      NCORE specifies how many cores store one orbital (NPAR=cpu/NCORE).     |
|      This setting can  greatly improve the performance of VASP for DFT.     |
|      The default, NPAR=number of cores might be grossly inefficient         |
|      on modern multi-core architectures or massively parallel machines.     |
|      Do your own testing !!!!                                               |
|      Unfortunately you need to use the default for GW and RPA calculations. |
|      (for HF NCORE is supported but not extensively tested yet)             |
|                                                                             |
 ----------------------------------------------------------------------------- 

 LDA part: xc-table for Ceperly-Alder, standard interpolation
 POSCAR found type information on POSCAR  Pd H 
 00/POSCAR found :  2 types and       5 ions
 POSCAR found type information on POSCAR  Pd H 
 05/POSCAR found :  2 types and       5 ions
 Jacobian:    5.26317925886129     
 POSCAR, INCAR and KPOINTS ok, starting setup
 WARNING: small aliasing (wrap around) errors must be expected
 FFT: planning ...
 WAVECAR not read
 entering main loop
       N       E                     dE             d eps       ncg     rms          rms(c)
DAV:   1     0.381370342688E+03    0.38137E+03   -0.19364E+04  5800   0.160E+03
DAV:   2    -0.401133252331E+01   -0.38538E+03   -0.36696E+03  5855   0.456E+02
DAV:   3    -0.234289700680E+02   -0.19418E+02   -0.17606E+02  6835   0.107E+02
DAV:   4    -0.239816636097E+02   -0.55269E+00   -0.54779E+00  6255   0.205E+01
DAV:   5    -0.239950801096E+02   -0.13416E-01   -0.13411E-01  6875   0.277E+00    0.617E+00
DAV:   6    -0.232218157673E+02    0.77326E+00   -0.34814E+00  6600   0.237E+01    0.327E+00
DAV:   7    -0.233251385743E+02   -0.10332E+00   -0.22683E+00  7725   0.268E+01    0.358E+00
DAV:   8    -0.230736082955E+02    0.25153E+00   -0.31980E-01  7945   0.133E+01    0.906E-01
DAV:   9    -0.230637556008E+02    0.98527E-02   -0.91578E-02  8715   0.428E+00    0.596E-01
DAV:  10    -0.230610824040E+02    0.26732E-02   -0.28100E-02  7810   0.331E+00    0.416E-01
DAV:  11    -0.230590218296E+02    0.20606E-02   -0.26819E-03  8095   0.911E-01    0.103E-01
DAV:  12    -0.230588382304E+02    0.18360E-03   -0.79551E-04  8420   0.489E-01    0.509E-02
DAV:  13    -0.230588327778E+02    0.54526E-05   -0.15740E-04  6320   0.154E-01    0.207E-02
DAV:  14    -0.230588234985E+02    0.92793E-05   -0.17441E-05  3315   0.709E-02
   1 F= -.23058823E+02 E0= -.23058639E+02  d E =-.230588E+02
quench:  g(F)=  0.000E+00 g(S)=  0.000E+00 dE (1.order)= 0.000E+00
 bond charge predicted
       N       E                     dE             d eps       ncg     rms          rms(c)
DAV:   1    -0.237655507583E+02   -0.70672E+00   -0.36627E+01  5800   0.467E+01    0.334E+00
DAV:   2    -0.236389540481E+02    0.12660E+00   -0.25174E+00  8790   0.122E+01    0.142E+00
DAV:   3    -0.236530266915E+02   -0.14073E-01   -0.33169E-01  8010   0.108E+01    0.192E+00
DAV:   4    -0.236024500462E+02    0.50577E-01   -0.12713E-01  7950   0.638E+00    0.375E-01
DAV:   5    -0.235992681364E+02    0.31819E-02   -0.17388E-02  7570   0.924E-01    0.136E-01
DAV:   6    -0.235990182746E+02    0.24986E-03   -0.12916E-03  6285   0.281E-01    0.396E-02
DAV:   7    -0.235990211998E+02   -0.29251E-05   -0.15218E-04  6950   0.782E-02    0.177E-02
DAV:   8    -0.235990215702E+02   -0.37044E-06   -0.24063E-05  4735   0.368E-02
   2 F= -.23599022E+02 E0= -.23598843E+02  d E =-.540198E+00
quench:  g(F)=  0.000E+00 g(S)=  0.000E+00 dE (1.order)= 0.000E+00
 bond charge predicted
       N       E                     dE             d eps       ncg     rms          rms(c)
DAV:   1    -0.239009184800E+02   -0.30190E+00   -0.10327E+02  5800   0.686E+01    0.267E+00
DAV:   2    -0.241529681994E+02   -0.25205E+00   -0.52402E+00  7665   0.127E+01    0.167E+00
DAV:   3    -0.241082534274E+02    0.44715E-01   -0.27537E-01  7675   0.685E+00    0.124E+00
DAV:   4    -0.240913063693E+02    0.16947E-01   -0.68330E-02  8015   0.467E+00    0.809E-01
DAV:   5    -0.240780689944E+02    0.13237E-01   -0.44456E-02  8795   0.196E+00    0.218E-01
DAV:   6    -0.240772585655E+02    0.81043E-03   -0.34595E-03  8060   0.465E-01    0.413E-02
DAV:   7    -0.240772403446E+02    0.18221E-04   -0.14414E-04  6460   0.982E-02    0.171E-02
DAV:   8    -0.240772377130E+02    0.26317E-05   -0.22953E-05  4140   0.395E-02
   3 F= -.24077238E+02 E0= -.24077031E+02  d E =-.478216E+00
quench:  g(F)=  0.000E+00 g(S)=  0.000E+00 dE (1.order)= 0.000E+00
 bond charge predicted
       N       E                     dE             d eps       ncg     rms          rms(c)
DAV:   1    -0.240683782295E+02    0.88621E-02   -0.13974E+02  5800   0.710E+01    0.263E+00
DAV:   2    -0.243757020564E+02   -0.30732E+00   -0.58143E+00  8795   0.174E+01    0.156E+00
DAV:   3    -0.243526781492E+02    0.23024E-01   -0.24117E-01  8315   0.746E+00    0.129E+00
DAV:   4    -0.243298415606E+02    0.22837E-01   -0.59326E-02  8450   0.459E+00    0.602E-01
DAV:   5    -0.243226047971E+02    0.72368E-02   -0.43341E-02  7570   0.122E+00    0.112E-01
DAV:   6    -0.243225894879E+02    0.15309E-04   -0.31662E-03  5920   0.413E-01    0.725E-02
DAV:   7    -0.243225316786E+02    0.57809E-04   -0.64774E-04  7585   0.166E-01    0.203E-02
DAV:   8    -0.243225311576E+02    0.52099E-06   -0.57061E-05  6265   0.824E-02
   4 F= -.24322531E+02 E0= -.24322270E+02  d E =-.245293E+00
quench:  g(F)=  0.000E+00 g(S)=  0.000E+00 dE (1.order)= 0.000E+00
 bond charge predicted
       N       E                     dE             d eps       ncg     rms          rms(c)
DAV:   1    -0.243168799830E+02    0.56517E-02   -0.80117E+01  5800   0.558E+01    0.318E+00
DAV:   2    -0.243606186542E+02   -0.43739E-01   -0.41340E+00  7615   0.121E+01    0.110E+00
DAV:   3    -0.243403187619E+02    0.20300E-01   -0.13999E-01  7405   0.348E+00    0.645E-01
DAV:   4    -0.243405426488E+02   -0.22389E-03   -0.44337E-02  8105   0.370E+00    0.746E-01
DAV:   5    -0.243330043715E+02    0.75383E-02   -0.22663E-02  8675   0.248E+00    0.121E-01
DAV:   6    -0.243330177390E+02   -0.13368E-04   -0.15731E-03  6175   0.369E-01    0.553E-02
DAV:   7    -0.243330850909E+02   -0.67352E-04   -0.24403E-04  8305   0.941E-02    0.204E-02
DAV:   8    -0.243330744555E+02    0.10635E-04   -0.52262E-05  6210   0.414E-02    0.424E-03
DAV:   9    -0.243330751214E+02   -0.66589E-06   -0.25218E-06  3045   0.151E-02
   5 F= -.24333075E+02 E0= -.24332886E+02  d E =-.105440E-01
quench:  g(F)=  0.000E+00 g(S)=  0.000E+00 dE (1.order)= 0.000E+00
 bond charge predicted
       N       E                     dE             d eps       ncg     rms          rms(c)
DAV:   1    -0.243399224556E+02   -0.68480E-02   -0.48709E-01  5800   0.413E+00    0.934E-02
DAV:   2    -0.243410465278E+02   -0.11241E-02   -0.15136E-02  6880   0.737E-01    0.631E-02
DAV:   3    -0.243410092092E+02    0.37319E-04   -0.69184E-04  6300   0.229E-01    0.459E-02
DAV:   4    -0.243409952345E+02    0.13975E-04   -0.13857E-05  3540   0.603E-02    0.413E-02
DAV:   5    -0.243409686956E+02    0.26539E-04   -0.23245E-05  3995   0.361E-02    0.294E-02
DAV:   6    -0.243409516639E+02    0.17032E-04   -0.20790E-04  6695   0.768E-02    0.114E-02
DAV:   7    -0.243409496816E+02    0.19823E-05   -0.90487E-06  2950   0.249E-02
   6 F= -.24340950E+02 E0= -.24340759E+02  d E =-.787456E-02
quench:  g(F)=  0.000E+00 g(S)=  0.000E+00 dE (1.order)= 0.000E+00
 bond charge predicted
       N       E                     dE             d eps       ncg     rms          rms(c)
DAV:   1    -0.243476844126E+02   -0.67327E-02   -0.16936E+00  5800   0.770E+00    0.177E-01
DAV:   2    -0.243516576393E+02   -0.39732E-02   -0.52964E-02  7005   0.140E+00    0.120E-01
DAV:   3    -0.243515333206E+02    0.12432E-03   -0.24294E-03  6380   0.467E-01    0.908E-02
DAV:   4    -0.243514787357E+02    0.54585E-04   -0.10245E-04  7375   0.159E-01    0.788E-02
DAV:   5    -0.243513769219E+02    0.10181E-03   -0.98351E-05  6630   0.605E-02    0.518E-02
DAV:   6    -0.243513104814E+02    0.66441E-04   -0.32949E-04  6670   0.935E-02    0.572E-03
DAV:   7    -0.243513123402E+02   -0.18587E-05   -0.12604E-05  3105   0.336E-02
   7 F= -.24351312E+02 E0= -.24351103E+02  d E =-.103627E-01
quench:  g(F)=  0.000E+00 g(S)=  0.000E+00 dE (1.order)= 0.000E+00
 bond charge predicted
       N       E                     dE             d eps       ncg     rms          rms(c)
DAV:   1    -0.243510279589E+02    0.28252E-03   -0.26770E+00  5800   0.973E+00    0.234E-01
DAV:   2    -0.243579726689E+02   -0.69447E-02   -0.90111E-02  8485   0.188E+00    0.189E-01
DAV:   3    -0.243574124150E+02    0.56025E-03   -0.21070E-03  6840   0.525E-01    0.137E-01
DAV:   4    -0.243572720021E+02    0.14041E-03   -0.37123E-04  8890   0.311E-01    0.102E-01
DAV:   5    -0.243570246612E+02    0.24734E-03   -0.63136E-04  8015   0.159E-01    0.353E-02
DAV:   6    -0.243570033365E+02    0.21325E-04   -0.20700E-04  8820   0.824E-02    0.951E-03
DAV:   7    -0.243570006434E+02    0.26932E-05   -0.15837E-05  3220   0.284E-02
   8 F= -.24357001E+02 E0= -.24356752E+02  d E =-.568830E-02
quench:  g(F)=  0.000E+00 g(S)=  0.000E+00 dE (1.order)= 0.000E+00
 bond charge predicted
       N       E                     dE             d eps       ncg     rms          rms(c)
DAV:   1    -0.243526603739E+02    0.43430E-02   -0.15977E+00  5800   0.788E+00    0.283E-01
DAV:   2    -0.243571994842E+02   -0.45391E-02   -0.72003E-02  8750   0.159E+00    0.186E-01
DAV:   3    -0.243565139061E+02    0.68558E-03   -0.13579E-03  7620   0.374E-01    0.116E-01
DAV:   4    -0.243564724655E+02    0.41441E-04   -0.91266E-04  8815   0.505E-01    0.121E-01
DAV:   5    -0.243562397733E+02    0.23269E-03   -0.53860E-04  8805   0.337E-01    0.259E-02
DAV:   6    -0.243562335173E+02    0.62560E-05   -0.14248E-04  7325   0.771E-02    0.821E-03
DAV:   7    -0.243562314786E+02    0.20387E-05   -0.86370E-06  3035   0.219E-02
   9 F= -.24356231E+02 E0= -.24355965E+02  d E =0.769165E-03
quench:  g(F)=  0.000E+00 g(S)=  0.000E+00 dE (1.order)= 0.000E+00
 bond charge predicted
       N       E                     dE             d eps       ncg     rms          rms(c)
DAV:   1    -0.243533614694E+02    0.28720E-02   -0.10446E+00  5800   0.643E+00    0.257E-01
DAV:   2    -0.243558533153E+02   -0.24918E-02   -0.48236E-02  8580   0.126E+00    0.155E-01
DAV:   3    -0.243553294889E+02    0.52383E-03   -0.10937E-03  7430   0.243E-01    0.838E-02
DAV:   4    -0.243552354977E+02    0.93991E-04   -0.63724E-04  8875   0.280E-01    0.716E-02
DAV:   5    -0.243551709489E+02    0.64549E-04   -0.16156E-04  7845   0.234E-01    0.196E-02
DAV:   6    -0.243551686654E+02    0.22835E-05   -0.64635E-05  5940   0.529E-02
  10 F= -.24355169E+02 E0= -.24354903E+02  d E =0.106281E-02
quench:  g(F)=  0.000E+00 g(S)=  0.000E+00 dE (1.order)= 0.000E+00
 bond charge predicted
       N       E                     dE             d eps       ncg     rms          rms(c)
DAV:   1    -0.243553562340E+02   -0.18529E-03   -0.49649E-03  5800   0.558E-01    0.494E-02
DAV:   2    -0.243553134582E+02    0.42776E-04   -0.44068E-04  8290   0.171E-01    0.133E-02
DAV:   3    -0.243553141601E+02   -0.70190E-06   -0.25749E-05  3315   0.957E-02
  11 F= -.24355314E+02 E0= -.24355051E+02  d E =-.145495E-03
quench:  g(F)=  0.000E+00 g(S)=  0.000E+00 dE (1.order)= 0.000E+00
 bond charge predicted
       N       E                     dE             d eps       ncg     rms          rms(c)
DAV:   1    -0.243555392394E+02   -0.22578E-03   -0.15514E-02  5800   0.915E-01    0.713E-02
DAV:   2    -0.243554674638E+02    0.71776E-04   -0.10649E-03  8255   0.245E-01    0.250E-02
DAV:   3    -0.243554668656E+02    0.59828E-06   -0.84338E-05  7430   0.150E-01
  12 F= -.24355467E+02 E0= -.24355204E+02  d E =-.152705E-03
quench:  g(F)=  0.000E+00 g(S)=  0.000E+00 dE (1.order)= 0.000E+00
 bond charge predicted
       N       E                     dE             d eps       ncg     rms          rms(c)
DAV:   1    -0.243554229843E+02    0.44480E-04   -0.18592E-02  5800   0.865E-01    0.420E-02
DAV:   2    -0.243554454927E+02   -0.22508E-04   -0.79441E-04  8890   0.190E-01    0.270E-02
DAV:   3    -0.243554297925E+02    0.15700E-04   -0.23052E-05  3880   0.722E-02    0.209E-02
DAV:   4    -0.243554260621E+02    0.37304E-05   -0.28181E-05  3540   0.996E-02
  13 F= -.24355426E+02 E0= -.24355153E+02  d E =0.408034E-04
quench:  g(F)=  0.000E+00 g(S)=  0.000E+00 dE (1.order)= 0.000E+00
 bond charge predicted
       N       E                     dE             d eps       ncg     rms          rms(c)
DAV:   1    -0.243552100704E+02    0.21972E-03   -0.20132E-02  5800   0.927E-01    0.501E-02
DAV:   2    -0.243552053345E+02    0.47359E-05   -0.75067E-04  8705   0.174E-01    0.241E-02
DAV:   3    -0.243551998483E+02    0.54862E-05   -0.52707E-05  6065   0.123E-01
  14 F= -.24355200E+02 E0= -.24354934E+02  d E =0.226214E-03
quench:  g(F)=  0.000E+00 g(S)=  0.000E+00 dE (1.order)= 0.000E+00
 bond charge predicted
       N       E                     dE             d eps       ncg     rms          rms(c)
DAV:   1    -0.243547846992E+02    0.42064E-03   -0.21675E-02  5800   0.937E-01    0.494E-02
DAV:   2    -0.243547939913E+02   -0.92921E-05   -0.78700E-04  9075   0.237E-01    0.290E-02
DAV:   3    -0.243547740607E+02    0.19931E-04   -0.32379E-05  4390   0.869E-02    0.230E-02
DAV:   4    -0.243547693178E+02    0.47429E-05   -0.41913E-05  4150   0.120E-01
  15 F= -.24354769E+02 E0= -.24354496E+02  d E =0.430531E-03
quench:  g(F)=  0.000E+00 g(S)=  0.000E+00 dE (1.order)= 0.000E+00
 bond charge predicted
       N       E                     dE             d eps       ncg     rms          rms(c)
DAV:   1    -0.243542142701E+02    0.55979E-03   -0.34728E-02  5800   0.117E+00    0.541E-02
DAV:   2    -0.243542681015E+02   -0.53831E-04   -0.12666E-03  9040   0.304E-01    0.391E-02
DAV:   3    -0.243542561335E+02    0.11968E-04   -0.10799E-04  7805   0.192E-01    0.357E-02
DAV:   4    -0.243542348080E+02    0.21325E-04   -0.31435E-05  3625   0.111E-01    0.136E-02
DAV:   5    -0.243542305098E+02    0.42982E-05   -0.48050E-05  5535   0.442E-02
  16 F= -.24354231E+02 E0= -.24353961E+02  d E =0.538808E-03
quench:  g(F)=  0.000E+00 g(S)=  0.000E+00 dE (1.order)= 0.000E+00
 bond charge predicted
       N       E                     dE             d eps       ncg     rms          rms(c)
DAV:   1    -0.243535617659E+02    0.67304E-03   -0.51232E-02  5800   0.137E+00    0.298E-02
DAV:   2    -0.243536888002E+02   -0.12703E-03   -0.14280E-03  8835   0.253E-01    0.278E-02
DAV:   3    -0.243536794616E+02    0.93386E-05   -0.30347E-05  4715   0.927E-02
  17 F= -.24353679E+02 E0= -.24353415E+02  d E =0.551048E-03
quench:  g(F)=  0.000E+00 g(S)=  0.000E+00 dE (1.order)= 0.000E+00
 bond charge predicted
       N       E                     dE             d eps       ncg     rms          rms(c)
DAV:   1    -0.243530038304E+02    0.68497E-03   -0.73966E-02  5800   0.170E+00    0.510E-02
DAV:   2    -0.243531957156E+02   -0.19189E-03   -0.26602E-03  8800   0.327E-01    0.475E-02
DAV:   3    -0.243531632579E+02    0.32458E-04   -0.72434E-05  7275   0.130E-01    0.341E-02
DAV:   4    -0.243531501920E+02    0.13066E-04   -0.29213E-05  3270   0.106E-01    0.276E-02
DAV:   5    -0.243531362691E+02    0.13923E-04   -0.92273E-05  8055   0.681E-02    0.483E-03
DAV:   6    -0.243531360559E+02    0.21315E-06   -0.31385E-06  2920   0.156E-02
  18 F= -.24353136E+02 E0= -.24352874E+02  d E =0.543406E-03
quench:  g(F)=  0.000E+00 g(S)=  0.000E+00 dE (1.order)= 0.000E+00
 bond charge predicted
       N       E                     dE             d eps       ncg     rms          rms(c)
DAV:   1    -0.243525081637E+02    0.62811E-03   -0.11343E-01  5800   0.203E+00    0.400E-02
DAV:   2    -0.243527947609E+02   -0.28660E-03   -0.31956E-03  8665   0.366E-01    0.381E-02
DAV:   3    -0.243527738459E+02    0.20915E-04   -0.47497E-05  5620   0.865E-02    0.280E-02
DAV:   4    -0.243527687790E+02    0.50670E-05   -0.83245E-06  2945   0.504E-02
  19 F= -.24352769E+02 E0= -.24352506E+02  d E =0.367277E-03
quench:  g(F)=  0.000E+00 g(S)=  0.000E+00 dE (1.order)= 0.000E+00
 bond charge predicted
       N       E                     dE             d eps       ncg     rms          rms(c)
DAV:   1    -0.243522193559E+02    0.55449E-03   -0.14626E-01  5800   0.233E+00    0.556E-02
DAV:   2    -0.243526211815E+02   -0.40183E-03   -0.47369E-03  8705   0.455E-01    0.519E-02
DAV:   3    -0.243525771461E+02    0.44035E-04   -0.58545E-05  6400   0.658E-02    0.353E-02
DAV:   4    -0.243525575797E+02    0.19566E-04   -0.65849E-05  6705   0.887E-02    0.279E-02
DAV:   5    -0.243525454364E+02    0.12143E-04   -0.20410E-05  3050   0.805E-02    0.112E-02
DAV:   6    -0.243525465342E+02   -0.10978E-05   -0.64959E-05  5805   0.422E-02
  20 F= -.24352547E+02 E0= -.24352287E+02  d E =0.222245E-03
quench:  g(F)=  0.000E+00 g(S)=  0.000E+00 dE (1.order)= 0.000E+00
 bond charge predicted
       N       E                     dE             d eps       ncg     rms          rms(c)
DAV:   1    -0.243520182772E+02    0.52716E-03   -0.17449E-01  5800   0.250E+00    0.563E-02
DAV:   2    -0.243524864538E+02   -0.46818E-03   -0.54083E-03  8705   0.483E-01    0.490E-02
DAV:   3    -0.243524488246E+02    0.37629E-04   -0.82014E-05  6435   0.107E-01    0.344E-02
DAV:   4    -0.243524393095E+02    0.95150E-05   -0.13597E-05  2935   0.709E-02
  21 F= -.24352439E+02 E0= -.24352178E+02  d E =0.107225E-03
quench:  g(F)=  0.000E+00 g(S)=  0.000E+00 dE (1.order)= 0.000E+00
 bond charge predicted
       N       E                     dE             d eps       ncg     rms          rms(c)
DAV:   1    -0.243519724343E+02    0.47639E-03   -0.18066E-01  5800   0.265E+00    0.889E-02
DAV:   2    -0.243524514925E+02   -0.47906E-03   -0.71833E-03  8705   0.505E-01    0.678E-02
DAV:   3    -0.243523707203E+02    0.80772E-04   -0.16432E-04  8430   0.163E-01    0.453E-02
DAV:   4    -0.243523540402E+02    0.16680E-04   -0.97069E-05  7510   0.175E-01    0.406E-02
DAV:   5    -0.243523216973E+02    0.32343E-04   -0.91166E-05  8440   0.103E-01    0.829E-03
DAV:   6    -0.243523195272E+02    0.21701E-05   -0.12599E-05  2915   0.251E-02
  22 F= -.24352320E+02 E0= -.24352062E+02  d E =0.119782E-03
quench:  g(F)=  0.000E+00 g(S)=  0.000E+00 dE (1.order)= 0.000E+00
 bond charge predicted
       N       E                     dE             d eps       ncg     rms          rms(c)
DAV:   1    -0.243519077578E+02    0.41394E-03   -0.19233E-01  5800   0.262E+00    0.566E-02
DAV:   2    -0.243524258506E+02   -0.51809E-03   -0.59253E-03  8700   0.504E-01    0.516E-02
DAV:   3    -0.243523818735E+02    0.43977E-04   -0.72486E-05  6265   0.700E-02    0.356E-02
DAV:   4    -0.243523556507E+02    0.26223E-04   -0.64148E-05  6580   0.592E-02    0.204E-02
DAV:   5    -0.243523488854E+02    0.67654E-05   -0.86021E-06  2940   0.496E-02
  23 F= -.24352349E+02 E0= -.24352090E+02  d E =-.293582E-04
quench:  g(F)=  0.000E+00 g(S)=  0.000E+00 dE (1.order)= 0.000E+00
 reached required accuracy - stopping structural energy minimisation
 writing wavefunctions
