 running on   20 total cores
 distrk:  each k-point on   20 cores,    1 groups
 distr:  one band on    1 cores,   20 groups
 using from now: INCAR     
 vasp.5.4.1 05Feb16 (build Sep 02 2018 21:45:25) complex                        
  
 POSCAR found type information on POSCAR  H  N 
 POSCAR found :  2 types and       4 ions
 scaLAPACK will be used

 ----------------------------------------------------------------------------- 
|                                                                             |
|           W    W    AA    RRRRR   N    N  II  N    N   GGGG   !!!           |
|           W    W   A  A   R    R  NN   N  II  NN   N  G    G  !!!           |
|           W    W  A    A  R    R  N N  N  II  N N  N  G       !!!           |
|           W WW W  AAAAAA  RRRRR   N  N N  II  N  N N  G  GGG   !            |
|           WW  WW  A    A  R   R   N   NN  II  N   NN  G    G                |
|           W    W  A    A  R    R  N    N  II  N    N   GGGG   !!!           |
|                                                                             |
|      For optimal performance we recommend to set                            |
|        NCORE= 4 - approx SQRT( number of cores)                             |
|      NCORE specifies how many cores store one orbital (NPAR=cpu/NCORE).     |
|      This setting can  greatly improve the performance of VASP for DFT.     |
|      The default, NPAR=number of cores might be grossly inefficient         |
|      on modern multi-core architectures or massively parallel machines.     |
|      Do your own testing !!!!                                               |
|      Unfortunately you need to use the default for GW and RPA calculations. |
|      (for HF NCORE is supported but not extensively tested yet)             |
|                                                                             |
 ----------------------------------------------------------------------------- 

 LDA part: xc-table for Ceperly-Alder, standard interpolation
 found WAVECAR, reading the header
  number of bands has changed, file:    40 present:    20
  trying to continue reading WAVECAR, but it might fail
 POSCAR, INCAR and KPOINTS ok, starting setup
 WARNING: small aliasing (wrap around) errors must be expected
 FFT: planning ...
 reading WAVECAR
 the WAVECAR file was read successfully
 initial charge from wavefunction
 entering main loop
       N       E                     dE             d eps       ncg     rms          rms(c)
DAV:   1    -0.196279397113E+02   -0.19628E+02   -0.19455E+00    80   0.548E+00    0.635E-01
DAV:   2    -0.196127730812E+02    0.15167E-01   -0.44093E-02    80   0.745E-01    0.337E-01
DAV:   3    -0.196048644479E+02    0.79086E-02   -0.28769E-02   160   0.583E-01    0.588E-02
DAV:   4    -0.196050248341E+02   -0.16039E-03   -0.27546E-03   120   0.154E-01    0.557E-02
DAV:   5    -0.196048298085E+02    0.19503E-03   -0.30641E-04    80   0.507E-02    0.269E-02
DAV:   6    -0.196050176658E+02   -0.18786E-03   -0.47019E-05    80   0.191E-02    0.228E-02
DAV:   7    -0.196052442920E+02   -0.22663E-03   -0.20865E-05   160   0.137E-02    0.843E-03
DAV:   8    -0.196060993872E+02   -0.85510E-03   -0.33328E-04    80   0.381E-02    0.126E-02
DAV:   9    -0.196061522202E+02   -0.52833E-04   -0.70677E-06   160   0.730E-03    0.906E-03
DAV:  10    -0.196065638348E+02   -0.41161E-03   -0.91085E-05    80   0.166E-02    0.241E-03
DAV:  11    -0.196066394551E+02   -0.75620E-04   -0.61257E-06   160   0.836E-03    0.440E-03
DAV:  12    -0.196067371003E+02   -0.97645E-04   -0.26723E-06    80   0.619E-03    0.268E-03
DAV:  13    -0.196068072979E+02   -0.70198E-04   -0.27888E-06    80   0.680E-03    0.205E-03
DAV:  14    -0.196068210516E+02   -0.13754E-04   -0.99382E-07   160   0.467E-03    0.199E-03
DAV:  15    -0.196068303133E+02   -0.92616E-05   -0.61579E-07    80   0.301E-03    0.279E-04
DAV:  16    -0.196068320465E+02   -0.17332E-05   -0.20792E-07    80   0.182E-03    0.791E-04
DAV:  17    -0.196068277642E+02    0.42823E-05   -0.14186E-07    80   0.151E-03    0.137E-04
DAV:  18    -0.196068246219E+02    0.31423E-05   -0.72122E-08    80   0.106E-03    0.201E-04
DAV:  19    -0.196068240399E+02    0.58199E-06   -0.13751E-08    80   0.528E-04
   1 F= -.19606824E+02 E0= -.19606824E+02  d E =-.194665E-41  mag=    -0.0000
 Finite differences POTIM= 0.04000 DOF=  12
 bond charge predicted
       N       E                     dE             d eps       ncg     rms          rms(c)
DAV:   1    -0.195966975952E+02    0.10127E-01   -0.57288E-01    80   0.292E+00    0.268E-01
DAV:   2    -0.195966769639E+02    0.20631E-04   -0.83239E-03   160   0.351E-01    0.171E-01
DAV:   3    -0.195964436801E+02    0.23328E-03   -0.13254E-03    80   0.129E-01    0.464E-02
DAV:   4    -0.195964470223E+02   -0.33422E-05   -0.22691E-04   160   0.515E-02    0.192E-02
DAV:   5    -0.195964662932E+02   -0.19271E-04   -0.11398E-05    80   0.132E-02    0.631E-03
DAV:   6    -0.195965117818E+02   -0.45489E-04   -0.10922E-05    80   0.107E-02    0.217E-03
DAV:   7    -0.195965629565E+02   -0.51175E-04   -0.10695E-05    80   0.867E-03    0.179E-03
DAV:   8    -0.195966024227E+02   -0.39466E-04   -0.73088E-06    80   0.627E-03    0.132E-03
DAV:   9    -0.195966184824E+02   -0.16060E-04   -0.10835E-06   160   0.325E-03    0.691E-04
DAV:  10    -0.195966466114E+02   -0.28129E-04   -0.32570E-06    80   0.440E-03    0.288E-04
DAV:  11    -0.195966599798E+02   -0.13368E-04   -0.84530E-07    80   0.348E-03    0.461E-04
DAV:  12    -0.195966691922E+02   -0.92124E-05   -0.32499E-07   160   0.319E-03    0.340E-04
DAV:  13    -0.195966778299E+02   -0.86377E-05   -0.29035E-07    80   0.225E-03    0.125E-04
DAV:  14    -0.195966764417E+02    0.13882E-05   -0.59165E-08    80   0.102E-03    0.126E-04
DAV:  15    -0.195966750318E+02    0.14099E-05   -0.53965E-08    80   0.971E-04    0.541E-05
DAV:  16    -0.195966744476E+02    0.58421E-06   -0.11148E-08    80   0.509E-04
   2 F= -.19596674E+02 E0= -.19596674E+02  d E =-.729978E-13  mag=     0.0000
 Finite differences progress:
  Degree of freedom:   1/ 12
  Displacement:        1/  2
  Total:               1/ 24
 bond charge predicted
       N       E                     dE             d eps       ncg     rms          rms(c)
DAV:   1    -0.195962673696E+02    0.40766E-03   -0.22273E+00    80   0.598E+00    0.538E-01
DAV:   2    -0.195959683709E+02    0.29900E-03   -0.33818E-02    80   0.669E-01    0.331E-01
DAV:   3    -0.195952096894E+02    0.75868E-03   -0.49669E-03    80   0.240E-01    0.102E-01
DAV:   4    -0.195951161293E+02    0.93560E-04   -0.10118E-03   160   0.101E-01    0.416E-02
DAV:   5    -0.195951016202E+02    0.14509E-04   -0.74686E-05    80   0.289E-02    0.141E-02
DAV:   6    -0.195952503664E+02   -0.14875E-03   -0.38043E-05    80   0.211E-02    0.430E-03
DAV:   7    -0.195954366444E+02   -0.18628E-03   -0.32189E-05    80   0.145E-02    0.346E-03
DAV:   8    -0.195955779467E+02   -0.14130E-03   -0.15770E-05    80   0.897E-03    0.224E-03
DAV:   9    -0.195957178689E+02   -0.13992E-03   -0.20201E-05    80   0.105E-02    0.118E-03
DAV:  10    -0.195957797816E+02   -0.61913E-04   -0.56098E-06    80   0.907E-03    0.829E-04
DAV:  11    -0.195958362509E+02   -0.56469E-04   -0.44353E-06    80   0.774E-03    0.694E-04
DAV:  12    -0.195958539608E+02   -0.17710E-04   -0.94671E-07   160   0.499E-03    0.449E-04
