 running on   20 total cores
 distrk:  each k-point on   20 cores,    1 groups
 distr:  one band on    1 cores,   20 groups
 using from now: INCAR     
 vasp.5.4.1 05Feb16 (build Sep 02 2018 21:45:25) complex                        
  
 POSCAR found type information on POSCAR  H 
 POSCAR found :  1 types and       2 ions
 scaLAPACK will be used

 ----------------------------------------------------------------------------- 
|                                                                             |
|           W    W    AA    RRRRR   N    N  II  N    N   GGGG   !!!           |
|           W    W   A  A   R    R  NN   N  II  NN   N  G    G  !!!           |
|           W    W  A    A  R    R  N N  N  II  N N  N  G       !!!           |
|           W WW W  AAAAAA  RRRRR   N  N N  II  N  N N  G  GGG   !            |
|           WW  WW  A    A  R   R   N   NN  II  N   NN  G    G                |
|           W    W  A    A  R    R  N    N  II  N    N   GGGG   !!!           |
|                                                                             |
|      For optimal performance we recommend to set                            |
|        NCORE= 4 - approx SQRT( number of cores)                             |
|      NCORE specifies how many cores store one orbital (NPAR=cpu/NCORE).     |
|      This setting can  greatly improve the performance of VASP for DFT.     |
|      The default, NPAR=number of cores might be grossly inefficient         |
|      on modern multi-core architectures or massively parallel machines.     |
|      Do your own testing !!!!                                               |
|      Unfortunately you need to use the default for GW and RPA calculations. |
|      (for HF NCORE is supported but not extensively tested yet)             |
|                                                                             |
 ----------------------------------------------------------------------------- 

 LDA part: xc-table for Ceperly-Alder, standard interpolation
 POSCAR, INCAR and KPOINTS ok, starting setup
 WARNING: small aliasing (wrap around) errors must be expected
 FFT: planning ...
 WAVECAR not read
 entering main loop
       N       E                     dE             d eps       ncg     rms          rms(c)
DAV:   1     0.469308589395E+01    0.46931E+01   -0.20597E+02   480   0.343E+01
DAV:   2     0.969772041210E+00   -0.37233E+01   -0.37233E+01   700   0.800E+00
DAV:   3     0.896527650067E+00   -0.73244E-01   -0.73244E-01   600   0.150E+00
DAV:   4     0.896328801798E+00   -0.19885E-03   -0.19885E-03   700   0.594E-02
DAV:   5     0.896328381040E+00   -0.42076E-06   -0.42076E-06   620   0.216E-03    0.148E+00
DAV:   6     0.493768678136E+01    0.40414E+01   -0.73313E-02   640   0.338E-01    0.845E-01
DAV:   7     0.220441113534E+01   -0.27333E+01   -0.11436E-02   640   0.191E-01    0.517E-01
DAV:   8     0.120175875845E+01   -0.10027E+01   -0.11283E-02   500   0.195E-01    0.123E-01
DAV:   9     0.931577180461E+00   -0.27018E+00   -0.31599E-03   580   0.102E-01    0.677E-02
DAV:  10     0.889957642343E+00   -0.41620E-01   -0.78430E-04   560   0.602E-02    0.383E-02
DAV:  11     0.846203691633E+00   -0.43754E-01   -0.33100E-03   580   0.791E-02    0.199E-02
DAV:  12     0.847964665751E+00    0.17610E-02   -0.43414E-04   560   0.453E-02    0.140E-02
DAV:  13     0.845861188794E+00   -0.21035E-02   -0.14077E-03   480   0.645E-02    0.827E-03
DAV:  14     0.840674111902E+00   -0.51871E-02   -0.71971E-04   620   0.541E-02    0.550E-03
DAV:  15     0.825762076085E+00   -0.14912E-01   -0.25731E-04   520   0.378E-02    0.370E-03
DAV:  16     0.822380889452E+00   -0.33812E-02   -0.20646E-04   600   0.326E-02    0.267E-03
DAV:  17     0.821623296021E+00   -0.75759E-03   -0.96466E-05   480   0.249E-02    0.192E-03
DAV:  18     0.820257260910E+00   -0.13660E-02   -0.44997E-05   640   0.171E-02    0.103E-03
DAV:  19     0.820722501276E+00    0.46524E-03   -0.22484E-05   480   0.117E-02    0.120E-03
DAV:  20     0.820451995592E+00   -0.27051E-03   -0.42762E-06   680   0.443E-03    0.620E-04
DAV:  21     0.819757882198E+00   -0.69411E-03   -0.43811E-06   600   0.276E-03    0.317E-04
DAV:  22     0.819591500214E+00   -0.16638E-03   -0.11234E-06   580   0.197E-03    0.154E-04
DAV:  23     0.819327279133E+00   -0.26422E-03   -0.29308E-07   560   0.134E-03    0.106E-04
DAV:  24     0.819198891235E+00   -0.12839E-03   -0.45282E-07   520   0.132E-03    0.989E-05
DAV:  25     0.819194099118E+00   -0.47921E-05   -0.22584E-07   520   0.107E-03
   1 F= 0.81919410E+00 E0= 0.81919410E+00  d E =0.819194E+00  mag=     2.0000
 curvature:   0.00 expect dE= 0.000E+00 dE for cont linesearch  0.000E+00
 trial: gam= 0.00000 g(F)=  0.477E+00 g(S)=  0.000E+00 ort = 0.000E+00 (trialstep = 0.100E+01)
 search vector abs. value=  0.477E+00
 bond charge predicted
       N       E                     dE             d eps       ncg     rms          rms(c)
DAV:   1     0.189813956428E+01    0.10789E+01   -0.12177E+00   640   0.213E+00    0.687E-01
DAV:   2     0.141746863228E+01   -0.48067E+00   -0.17869E-02   600   0.289E-01    0.323E-01
DAV:   3     0.723207875598E+00   -0.69426E+00   -0.17853E-03   740   0.971E-02    0.874E-02
DAV:   4     0.574158345997E+00   -0.14905E+00   -0.93451E-04   520   0.468E-02    0.459E-02
DAV:   5     0.437745330261E+00   -0.13641E+00   -0.33628E-04   520   0.267E-02    0.204E-02
DAV:   6     0.404894741945E+00   -0.32851E-01   -0.71665E-05   560   0.116E-02    0.138E-02
DAV:   7     0.390506593351E+00   -0.14388E-01   -0.45644E-05   660   0.130E-02    0.459E-03
DAV:   8     0.385554403045E+00   -0.49522E-02   -0.20725E-05   480   0.103E-02    0.301E-03
DAV:   9     0.382367346741E+00   -0.31871E-02   -0.21778E-05   480   0.772E-03    0.199E-03
DAV:  10     0.381280262262E+00   -0.10871E-02   -0.45811E-05   680   0.102E-02    0.138E-03
DAV:  11     0.379177290877E+00   -0.21030E-02   -0.77361E-06   520   0.691E-03    0.892E-04
DAV:  12     0.377907264033E+00   -0.12700E-02   -0.68432E-06   500   0.564E-03    0.568E-04
DAV:  13     0.377203628337E+00   -0.70364E-03   -0.64697E-06   600   0.528E-03    0.457E-04
DAV:  14     0.377103066325E+00   -0.10056E-03   -0.16085E-06   480   0.316E-03    0.287E-04
DAV:  15     0.376888143353E+00   -0.21492E-03   -0.15415E-06   540   0.245E-03    0.256E-04
DAV:  16     0.376868738261E+00   -0.19405E-04   -0.49698E-07   520   0.174E-03    0.927E-05
DAV:  17     0.376731382449E+00   -0.13736E-03   -0.45502E-07   540   0.111E-03    0.859E-05
DAV:  18     0.376738283031E+00    0.69006E-05   -0.10582E-07   560   0.601E-04
   2 F= 0.37673828E+00 E0= 0.37673828E+00  d E =-.442456E+00  mag=     2.0000
 ZBRENT: can't locate minimum, use default step
 trial-energy change:   -0.442456  1 .order   -0.443435   -0.477045   -0.409826
 step:   4.0000(harm=  7.0969)  dis= 0.27138  next Energy=    -0.873568 (dE=-0.169E+01)
 bond charge predicted
       N       E                     dE             d eps       ncg     rms          rms(c)
DAV:   1     0.390058675189E+01    0.35239E+01   -0.10612E+01   620   0.625E+00    0.197E+00
DAV:   2     0.207717451159E+01   -0.18234E+01   -0.13750E-01   560   0.748E-01    0.904E-01
DAV:   3     0.163197311961E+00   -0.19140E+01   -0.14039E-02   580   0.256E-01    0.215E-01
DAV:   4    -0.102930825907E+00   -0.26613E+00   -0.57912E-03   620   0.123E-01    0.117E-01
DAV:   5    -0.469065909799E+00   -0.36614E+00   -0.18604E-03   500   0.636E-02    0.463E-02
DAV:   6    -0.559429145956E+00   -0.90363E-01   -0.29216E-04   580   0.289E-02    0.293E-02
DAV:   7    -0.572902237566E+00   -0.13473E-01   -0.12693E-04   620   0.246E-02    0.126E-02
DAV:   8    -0.595990708324E+00   -0.23088E-01   -0.84447E-05   700   0.222E-02    0.626E-03
DAV:   9    -0.599568846368E+00   -0.35781E-02   -0.85558E-05   480   0.158E-02    0.430E-03
DAV:  10    -0.606796501802E+00   -0.72277E-02   -0.10054E-04   680   0.163E-02    0.256E-03
DAV:  11    -0.609992649040E+00   -0.31961E-02   -0.34993E-05   560   0.110E-02    0.181E-03
DAV:  12    -0.610451923116E+00   -0.45927E-03   -0.15904E-05   480   0.861E-03    0.127E-03
DAV:  13    -0.613145621724E+00   -0.26937E-02   -0.24152E-05   600   0.818E-03    0.980E-04
DAV:  14    -0.613457107032E+00   -0.31149E-03   -0.32072E-06   520   0.457E-03    0.599E-04
DAV:  15    -0.613746878243E+00   -0.28977E-03   -0.47217E-06   560   0.384E-03    0.505E-04
DAV:  16    -0.613755892419E+00   -0.90142E-05   -0.17714E-06   500   0.323E-03
   3 F= -.61375589E+00 E0= -.61375589E+00  d E =-.143295E+01  mag=     2.0000
 curvature:  -2.63 expect dE=-0.378E+00 dE for cont linesearch -0.378E+00
 ZBRENT: increasing intervall
 opt :  10.0000  next Energy=    -1.297256 (dE=-0.212E+01)
 bond charge predicted
       N       E                     dE             d eps       ncg     rms          rms(c)
DAV:   1     0.615957708037E+01    0.67733E+01   -0.37507E+01   720   0.111E+01    0.355E+00
DAV:   2     0.229618622824E+01   -0.38634E+01   -0.83930E-01   560   0.156E+00    0.155E+00
DAV:   3    -0.507574205149E+00   -0.28038E+01   -0.87988E-02   660   0.604E-01    0.355E-01
DAV:   4    -0.830268797462E+00   -0.32269E+00   -0.92527E-03   540   0.171E-01    0.218E-01
DAV:   5    -0.135826501364E+01   -0.52800E+00   -0.38841E-03   540   0.962E-02    0.850E-02
DAV:   6    -0.158709550970E+01   -0.22883E+00   -0.93032E-04   640   0.572E-02    0.312E-02
DAV:   7    -0.159299303770E+01   -0.58975E-02   -0.12434E-04   500   0.268E-02    0.195E-02
DAV:   8    -0.162563795303E+01   -0.32645E-01   -0.23583E-04   520   0.321E-02    0.731E-03
DAV:   9    -0.161887114581E+01    0.67668E-02   -0.80181E-05   640   0.189E-02    0.506E-03
DAV:  10    -0.162972252228E+01   -0.10851E-01   -0.74121E-05   560   0.151E-02    0.296E-03
DAV:  11    -0.163629973193E+01   -0.65772E-02   -0.51318E-05   580   0.130E-02    0.195E-03
DAV:  12    -0.163837856730E+01   -0.20788E-02   -0.27508E-05   520   0.944E-03    0.137E-03
DAV:  13    -0.163939489849E+01   -0.10163E-02   -0.15041E-05   560   0.813E-03    0.111E-03
DAV:  14    -0.164074451536E+01   -0.13496E-02   -0.68413E-06   640   0.651E-03    0.573E-04
DAV:  15    -0.164066592817E+01    0.78587E-04   -0.25185E-06   580   0.320E-03    0.398E-04
DAV:  16    -0.164082849752E+01   -0.16257E-03   -0.10516E-06   540   0.201E-03    0.240E-04
DAV:  17    -0.164114492760E+01   -0.31643E-03   -0.51823E-07   600   0.139E-03    0.136E-04
DAV:  18    -0.164124677107E+01   -0.10184E-03   -0.24648E-07   680   0.104E-03    0.778E-05
DAV:  19    -0.164131200165E+01   -0.65231E-04   -0.98169E-08   600   0.740E-04    0.467E-05
DAV:  20    -0.164136019988E+01   -0.48198E-04   -0.12589E-07   600   0.712E-04    0.321E-05
DAV:  21    -0.164137832280E+01   -0.18123E-04   -0.45035E-08   560   0.469E-04    0.164E-05
DAV:  22    -0.164138133245E+01   -0.30097E-05   -0.28682E-08   640   0.335E-04
   4 F= -.16413813E+01 E0= -.16413813E+01  d E =-.246058E+01  mag=     2.0000
 curvature:  -4.75 expect dE=-0.106E+00 dE for cont linesearch -0.106E+00
 ZBRENT: increasing intervall
 opt :  22.0000  next Energy=    -0.969186 (dE=-0.179E+01)
 bond charge predicted
       N       E                     dE             d eps       ncg     rms          rms(c)
DAV:   1     0.813875623572E+01    0.97801E+01   -0.91808E+01   720   0.137E+01    0.540E+00
DAV:   2     0.426480296619E+01   -0.38740E+01   -0.43060E+00   580   0.331E+00    0.208E+00
DAV:   3    -0.311233210133E+00   -0.45760E+01   -0.10592E+00   520   0.204E+00    0.516E-01
DAV:   4    -0.123068751542E+01   -0.91945E+00   -0.21960E-02   760   0.256E-01    0.329E-01
DAV:   5    -0.163085671025E+01   -0.40017E+00   -0.60145E-03   680   0.127E-01    0.136E-01
DAV:   6    -0.209650015978E+01   -0.46564E+00   -0.19323E-03   500   0.913E-02    0.355E-02
DAV:   7    -0.213316672721E+01   -0.36667E-01   -0.31806E-04   660   0.411E-02    0.241E-02
DAV:   8    -0.214015383624E+01   -0.69871E-02   -0.98520E-05   540   0.195E-02    0.132E-02
DAV:   9    -0.216103178437E+01   -0.20878E-01   -0.15862E-04   500   0.189E-02    0.607E-03
DAV:  10    -0.216588128824E+01   -0.48495E-02   -0.29140E-05   560   0.768E-03    0.350E-03
DAV:  11    -0.216831874194E+01   -0.24375E-02   -0.24380E-05   640   0.800E-03    0.209E-03
DAV:  12    -0.217223193802E+01   -0.39132E-02   -0.28687E-05   660   0.777E-03    0.163E-03
DAV:  13    -0.217302574091E+01   -0.79380E-03   -0.30624E-06   480   0.380E-03    0.147E-03
DAV:  14    -0.217482617224E+01   -0.18004E-02   -0.46084E-06   520   0.393E-03    0.761E-04
DAV:  15    -0.217534968297E+01   -0.52351E-03   -0.15926E-06   600   0.236E-03    0.812E-04
DAV:  16    -0.217553112073E+01   -0.18144E-03   -0.39185E-07   580   0.132E-03    0.368E-04
DAV:  17    -0.217557964050E+01   -0.48520E-04   -0.55585E-07   620   0.154E-03    0.204E-04
DAV:  18    -0.217544655484E+01    0.13309E-03   -0.12409E-07   520   0.801E-04    0.236E-04
DAV:  19    -0.217572486960E+01   -0.27831E-03   -0.55713E-08   640   0.543E-04    0.102E-04
DAV:  20    -0.217582158932E+01   -0.96720E-04   -0.74413E-08   560   0.554E-04    0.455E-05
DAV:  21    -0.217579054834E+01    0.31041E-04   -0.16996E-08   600   0.318E-04    0.475E-05
DAV:  22    -0.217580639046E+01   -0.15842E-04   -0.11470E-08   640   0.250E-04    0.191E-05
DAV:  23    -0.217582915116E+01   -0.22761E-04   -0.39743E-09   520   0.148E-04    0.217E-05
DAV:  24    -0.217583400328E+01   -0.48521E-05   -0.86556E-10   660   0.808E-05
   5 F= -.21758340E+01 E0= -.21758340E+01  d E =-.299503E+01  mag=     2.0000
 curvature:  30.27 expect dE= 0.112E-01 dE for cont linesearch  0.112E-01
 ZBRENT: extrapolating
 opt :  23.7781  next Energy=    -2.187643 (dE=-0.301E+01)
 bond charge predicted
       N       E                     dE             d eps       ncg     rms          rms(c)
DAV:   1     0.734135286323E-01    0.22492E+01   -0.40879E+00   620   0.372E+00    0.120E+00
DAV:   2    -0.976738596787E+00   -0.10502E+01   -0.46819E-02   540   0.471E-01    0.533E-01
DAV:   3    -0.200450958657E+01   -0.10278E+01   -0.67583E-03   620   0.171E-01    0.879E-02
DAV:   4    -0.204773616900E+01   -0.43227E-01   -0.11237E-03   640   0.586E-02    0.530E-02
DAV:   5    -0.213825569902E+01   -0.90520E-01   -0.34803E-04   720   0.254E-02    0.225E-02
DAV:   6    -0.218973575481E+01   -0.51480E-01   -0.10934E-04   500   0.158E-02    0.408E-03
DAV:   7    -0.219154949593E+01   -0.18137E-02   -0.12175E-05   600   0.733E-03    0.265E-03
DAV:   8    -0.219256316567E+01   -0.10137E-02   -0.31413E-06   540   0.388E-03    0.169E-03
DAV:   9    -0.219522185547E+01   -0.26587E-02   -0.26049E-06   520   0.298E-03    0.711E-04
DAV:  10    -0.219516524944E+01    0.56606E-04   -0.78437E-07   680   0.178E-03    0.457E-04
DAV:  11    -0.219562052244E+01   -0.45527E-03   -0.38358E-07   680   0.114E-03    0.196E-04
DAV:  12    -0.219582683063E+01   -0.20631E-03   -0.23090E-07   560   0.893E-04    0.161E-04
DAV:  13    -0.219585443338E+01   -0.27603E-04   -0.50683E-08   560   0.485E-04    0.136E-04
DAV:  14    -0.219597820707E+01   -0.12377E-03   -0.99644E-08   600   0.629E-04    0.198E-04
DAV:  15    -0.219600697902E+01   -0.28772E-04   -0.94205E-08   600   0.605E-04    0.129E-04
DAV:  16    -0.219604123762E+01   -0.34259E-04   -0.43877E-08   560   0.522E-04    0.341E-05
DAV:  17    -0.219604114846E+01    0.89155E-07   -0.20806E-08   600   0.316E-04
   6 F= -.21960411E+01 E0= -.21960411E+01  d E =-.301524E+01  mag=     2.0000
 curvature: -31.93 expect dE=-0.620E-02 dE for cont linesearch -0.620E-02
 ZBRENT: increasing intervall
 opt :  27.3343  next Energy=    -2.217254 (dE=-0.304E+01)
 bond charge predicted
       N       E                     dE             d eps       ncg     rms          rms(c)
DAV:   1     0.203972956978E+01    0.42358E+01   -0.15512E+01   600   0.718E+00    0.230E+00
DAV:   2     0.157353391015E+00   -0.18824E+01   -0.20863E-01   560   0.887E-01    0.100E+00
DAV:   3    -0.177955460002E+01   -0.19369E+01   -0.27051E-02   660   0.345E-01    0.176E-01
DAV:   4    -0.191424527643E+01   -0.13469E+00   -0.34335E-03   540   0.107E-01    0.107E-01
DAV:   5    -0.210543921859E+01   -0.19119E+00   -0.91578E-04   660   0.434E-02    0.444E-02
DAV:   6    -0.220900741090E+01   -0.10357E+00   -0.30091E-04   540   0.272E-02    0.802E-03
DAV:   7    -0.221222518058E+01   -0.32178E-02   -0.57174E-05   480   0.155E-02    0.586E-03
DAV:   8    -0.221395628724E+01   -0.17311E-02   -0.78036E-06   660   0.594E-03    0.373E-03
DAV:   9    -0.221875100927E+01   -0.47947E-02   -0.12346E-05   480   0.673E-03    0.142E-03
DAV:  10    -0.221934393657E+01   -0.59293E-03   -0.27038E-06   560   0.295E-03    0.977E-04
DAV:  11    -0.222030675901E+01   -0.96282E-03   -0.88875E-07   480   0.181E-03    0.448E-04
DAV:  12    -0.222079744937E+01   -0.49069E-03   -0.60533E-07   540   0.136E-03    0.259E-04
DAV:  13    -0.222077950944E+01    0.17940E-04   -0.10450E-07   480   0.659E-04    0.247E-04
DAV:  14    -0.222100438983E+01   -0.22488E-03   -0.13865E-07   640   0.815E-04    0.191E-04
DAV:  15    -0.222113081369E+01   -0.12642E-03   -0.87413E-08   560   0.525E-04    0.177E-04
DAV:  16    -0.222117644075E+01   -0.45627E-04   -0.36622E-08   640   0.452E-04    0.646E-05
DAV:  17    -0.222118070155E+01   -0.42608E-05   -0.28068E-08   520   0.421E-04
   7 F= -.22211807E+01 E0= -.22211807E+01  d E =-.304037E+01  mag=     2.0000
 curvature: ****** expect dE=-0.573E-02 dE for cont linesearch -0.573E-02
 ZBRENT: increasing intervall
 opt :  34.4467  next Energy=    -2.223889 (dE=-0.304E+01)
 bond charge predicted
       N       E                     dE             d eps       ncg     rms          rms(c)
DAV:   1     0.485168197877E+01    0.70729E+01   -0.49735E+01   720   0.119E+01    0.400E+00
DAV:   2     0.206078732671E+01   -0.27909E+01   -0.11790E+00   540   0.158E+00    0.162E+00
DAV:   3    -0.117949779333E+01   -0.32403E+01   -0.25858E-01   620   0.107E+00    0.329E-01
DAV:   4    -0.165027815162E+01   -0.47078E+00   -0.11105E-02   600   0.177E-01    0.201E-01
DAV:   5    -0.199340052155E+01   -0.34312E+00   -0.24989E-03   660   0.749E-02    0.743E-02
DAV:   6    -0.221470223734E+01   -0.22130E+00   -0.75748E-04   520   0.506E-02    0.161E-02
DAV:   7    -0.222285742824E+01   -0.81552E-02   -0.17093E-04   480   0.284E-02    0.121E-02
DAV:   8    -0.222393595969E+01   -0.10785E-02   -0.37217E-05   560   0.126E-02    0.698E-03
DAV:   9    -0.223415353190E+01   -0.10218E-01   -0.22681E-05   520   0.824E-03    0.320E-03
DAV:  10    -0.223672464721E+01   -0.25711E-02   -0.17389E-05   520   0.723E-03    0.161E-03
DAV:  11    -0.223904784031E+01   -0.23232E-02   -0.18447E-06   520   0.309E-03    0.108E-03
DAV:  12    -0.223990857736E+01   -0.86074E-03   -0.10930E-06   760   0.167E-03    0.418E-04
DAV:  13    -0.223974146687E+01    0.16711E-03   -0.63093E-07   520   0.132E-03    0.378E-04
DAV:  14    -0.224019733246E+01   -0.45587E-03   -0.21534E-07   520   0.105E-03    0.274E-04
DAV:  15    -0.224038859360E+01   -0.19126E-03   -0.37806E-07   560   0.102E-03    0.269E-04
DAV:  16    -0.224045757617E+01   -0.68983E-04   -0.12177E-07   600   0.833E-04    0.169E-04
DAV:  17    -0.224050604083E+01   -0.48465E-04   -0.13180E-07   560   0.768E-04    0.640E-05
DAV:  18    -0.224046431773E+01    0.41723E-04   -0.28476E-08   540   0.383E-04    0.852E-05
DAV:  19    -0.224048936936E+01   -0.25052E-04   -0.16040E-08   640   0.302E-04    0.376E-05
DAV:  20    -0.224053718865E+01   -0.47819E-04   -0.12274E-08   560   0.293E-04    0.303E-05
DAV:  21    -0.224053292328E+01    0.42654E-05   -0.10540E-08   560   0.218E-04
   8 F= -.22405329E+01 E0= -.22405329E+01  d E =-.305973E+01  mag=     2.0000
 curvature: -51.63 expect dE=-0.153E-03 dE for cont linesearch -0.153E-03
 ZBRENT: extrapolating
 opt :  36.6678  next Energy=    -2.241855 (dE=-0.306E+01)
 bond charge predicted
       N       E                     dE             d eps       ncg     rms          rms(c)
DAV:   1     0.489565295154E+00    0.27301E+01   -0.63140E+00   640   0.461E+00    0.148E+00
DAV:   2    -0.757533088247E+00   -0.12471E+01   -0.76632E-02   580   0.576E-01    0.653E-01
DAV:   3    -0.198276139845E+01   -0.12252E+01   -0.10544E-02   680   0.219E-01    0.108E-01
DAV:   4    -0.205325435938E+01   -0.70493E-01   -0.18005E-03   600   0.727E-02    0.647E-02
DAV:   5    -0.217983216827E+01   -0.12658E+00   -0.50928E-04   680   0.312E-02    0.259E-02
DAV:   6    -0.223560484590E+01   -0.55773E-01   -0.12635E-04   540   0.175E-02    0.490E-03
DAV:   7    -0.223766773662E+01   -0.20629E-02   -0.17815E-05   520   0.832E-03    0.339E-03
DAV:   8    -0.223863661685E+01   -0.96888E-03   -0.45515E-06   620   0.447E-03    0.209E-03
DAV:   9    -0.224139440551E+01   -0.27578E-02   -0.26243E-06   480   0.336E-03    0.873E-04
DAV:  10    -0.224142065479E+01   -0.26249E-04   -0.10114E-06   600   0.220E-03    0.567E-04
DAV:  11    -0.224217581718E+01   -0.75516E-03   -0.35864E-07   640   0.122E-03    0.256E-04
DAV:  12    -0.224254440521E+01   -0.36859E-03   -0.29394E-07   560   0.100E-03    0.112E-04
DAV:  13    -0.224249953259E+01    0.44873E-04   -0.65657E-08   640   0.557E-04    0.111E-04
DAV:  14    -0.224255168673E+01   -0.52154E-04   -0.68371E-08   580   0.664E-04    0.701E-05
DAV:  15    -0.224261551195E+01   -0.63825E-04   -0.95342E-08   520   0.555E-04    0.742E-05
DAV:  16    -0.224263493872E+01   -0.19427E-04   -0.75422E-08   580   0.583E-04    0.299E-05
DAV:  17    -0.224263140792E+01    0.35308E-05   -0.22398E-08   640   0.341E-04
   9 F= -.22426314E+01 E0= -.22426314E+01  d E =-.306183E+01  mag=     2.0000
 curvature: ****** expect dE=-0.468E-03 dE for cont linesearch -0.468E-03
 ZBRENT: increasing intervall
 opt :  41.1102  next Energy=    -2.243635 (dE=-0.306E+01)
 bond charge predicted
       N       E                     dE             d eps       ncg     rms          rms(c)
DAV:   1     0.277928208447E+01    0.50219E+01   -0.23184E+01   600   0.868E+00    0.278E+00
DAV:   2     0.580981317557E+00   -0.21983E+01   -0.35309E-01   580   0.937E-01    0.119E+00
DAV:   3    -0.164434785974E+01   -0.22253E+01   -0.39454E-02   580   0.416E-01    0.214E-01
DAV:   4    -0.186392668744E+01   -0.21958E+00   -0.54586E-03   580   0.122E-01    0.129E-01
DAV:   5    -0.212186455660E+01   -0.25794E+00   -0.15473E-03   680   0.554E-02    0.464E-02
DAV:   6    -0.223042130966E+01   -0.10856E+00   -0.35295E-04   560   0.321E-02    0.961E-03
DAV:   7    -0.223398428078E+01   -0.35630E-02   -0.85987E-05   480   0.181E-02    0.688E-03
DAV:   8    -0.223597246192E+01   -0.19882E-02   -0.17172E-05   700   0.834E-03    0.415E-03
DAV:   9    -0.224076938889E+01   -0.47969E-02   -0.12172E-05   480   0.677E-03    0.166E-03
DAV:  10    -0.224195570585E+01   -0.11863E-02   -0.35495E-06   560   0.378E-03    0.108E-03
DAV:  11    -0.224346508502E+01   -0.15094E-02   -0.94076E-07   580   0.224E-03    0.569E-04
DAV:  12    -0.224422989925E+01   -0.76481E-03   -0.84275E-07   620   0.148E-03    0.223E-04
DAV:  13    -0.224403394249E+01    0.19596E-03   -0.22111E-07   600   0.898E-04    0.231E-04
DAV:  14    -0.224422375979E+01   -0.18982E-03   -0.12713E-07   640   0.807E-04    0.126E-04
DAV:  15    -0.224436274686E+01   -0.13899E-03   -0.23362E-07   560   0.801E-04    0.169E-04
DAV:  16    -0.224440734192E+01   -0.44595E-04   -0.78200E-08   560   0.625E-04    0.620E-05
DAV:  17    -0.224441857047E+01   -0.11229E-04   -0.30697E-08   600   0.422E-04    0.500E-05
DAV:  18    -0.224439936774E+01    0.19203E-04   -0.10538E-08   580   0.263E-04    0.306E-05
DAV:  19    -0.224441883104E+01   -0.19463E-04   -0.14372E-08   680   0.268E-04    0.156E-05
DAV:  20    -0.224442723870E+01   -0.84077E-05   -0.37065E-09   580   0.168E-04
  10 F= -.22444272E+01 E0= -.22444272E+01  d E =-.306362E+01  mag=     2.0000
 curvature: ****** expect dE=-0.653E-04 dE for cont linesearch -0.653E-04
 trial: gam=-0.00038 g(F)=  0.684E-07 g(S)=  0.000E+00 ort = 0.181E-03 (trialstep = 0.902E+01)
 search vector abs. value=  0.100E-09
 reached required accuracy - stopping structural energy minimisation
