 running on   20 total cores
 distrk:  each k-point on   20 cores,    1 groups
 distr:  one band on    1 cores,   20 groups
 using from now: INCAR     
 vasp.5.4.1 05Feb16 (build Sep 02 2018 21:45:25) complex                        
  
 POSCAR found type information on POSCAR  Si
 POSCAR found :  1 types and      63 ions
 scaLAPACK will be used

 ----------------------------------------------------------------------------- 
|                                                                             |
|           W    W    AA    RRRRR   N    N  II  N    N   GGGG   !!!           |
|           W    W   A  A   R    R  NN   N  II  NN   N  G    G  !!!           |
|           W    W  A    A  R    R  N N  N  II  N N  N  G       !!!           |
|           W WW W  AAAAAA  RRRRR   N  N N  II  N  N N  G  GGG   !            |
|           WW  WW  A    A  R   R   N   NN  II  N   NN  G    G                |
|           W    W  A    A  R    R  N    N  II  N    N   GGGG   !!!           |
|                                                                             |
|      For optimal performance we recommend to set                            |
|        NCORE= 4 - approx SQRT( number of cores)                             |
|      NCORE specifies how many cores store one orbital (NPAR=cpu/NCORE).     |
|      This setting can  greatly improve the performance of VASP for DFT.     |
|      The default, NPAR=number of cores might be grossly inefficient         |
|      on modern multi-core architectures or massively parallel machines.     |
|      Do your own testing !!!!                                               |
|      Unfortunately you need to use the default for GW and RPA calculations. |
|      (for HF NCORE is supported but not extensively tested yet)             |
|                                                                             |
 ----------------------------------------------------------------------------- 


 ----------------------------------------------------------------------------- 
|                                                                             |
|  ADVICE TO THIS USER RUNNING 'VASP/VAMP'   (HEAR YOUR MASTER'S VOICE ...):  |
|                                                                             |
|      You have a (more or less) 'large supercell' and for larger cells       |
|      it might be more efficient to use real space projection operators      |
|      So try LREAL= Auto  in the INCAR   file.                               |
|      Mind: If you want to do a very accurate calculations keep the          |
|      reciprocal projection scheme          (i.e. LREAL=.FALSE.)             |
|                                                                             |
 ----------------------------------------------------------------------------- 

 LDA part: xc-table for Ceperly-Alder, standard interpolation

 ----------------------------------------------------------------------------- 
|                                                                             |
|           W    W    AA    RRRRR   N    N  II  N    N   GGGG   !!!           |
|           W    W   A  A   R    R  NN   N  II  NN   N  G    G  !!!           |
|           W    W  A    A  R    R  N N  N  II  N N  N  G       !!!           |
|           W WW W  AAAAAA  RRRRR   N  N N  II  N  N N  G  GGG   !            |
|           WW  WW  A    A  R   R   N   NN  II  N   NN  G    G                |
|           W    W  A    A  R    R  N    N  II  N    N   GGGG   !!!           |
|                                                                             |
|      VASP found    186 degrees of freedom                                   |
|      the temperature will equal 2*E(kin)/ (degrees of freedom)              |
|      this differs from previous releases, where T was 2*E(kin)/(3 NIONS).   |
|      The new definition is more consistent                                  |
|                                                                             |
 ----------------------------------------------------------------------------- 

 POSCAR, INCAR and KPOINTS ok, starting setup
 WARNING: small aliasing (wrap around) errors must be expected
 FFT: planning ...
 WAVECAR not read
 prediction of wavefunctions initialized - no I/O
 entering main loop
       N       E                     dE             d eps       ncg     rms          rms(c)
DAV:   1     0.651825369304E+03    0.65183E+03   -0.94402E+04   320   0.126E+03
DAV:   2    -0.270131251992E+03   -0.92196E+03   -0.88525E+03   380   0.178E+02
DAV:   3    -0.336770913482E+03   -0.66640E+02   -0.65331E+02   400   0.427E+01
DAV:   4    -0.338285801685E+03   -0.15149E+01   -0.15033E+01   380   0.784E+00
DAV:   5    -0.338324686710E+03   -0.38885E-01   -0.38783E-01   380   0.132E+00    0.172E+01
DAV:   6    -0.334241903094E+03    0.40828E+01   -0.39807E+00   380   0.281E+00    0.102E+01
DAV:   7    -0.332464098147E+03    0.17778E+01   -0.43002E+00   360   0.341E+00    0.138E+00
DAV:   8    -0.332512094929E+03   -0.47997E-01   -0.22617E-01   380   0.942E-01    0.594E-01
DAV:   9    -0.332524652888E+03   -0.12558E-01   -0.37423E-02   420   0.402E-01    0.144E-01
DAV:  10    -0.332526687797E+03   -0.20349E-02   -0.81418E-03   360   0.181E-01    0.719E-02
DAV:  11    -0.332527211534E+03   -0.52374E-03   -0.15373E-03   380   0.747E-02    0.243E-02
DAV:  12    -0.332527292823E+03   -0.81289E-04   -0.28453E-04   300   0.305E-02
    1 T=     0. E= -.33252707E+03 F= -.33252729E+03 E0= -.33244954E+03  EK= 0.22378E-03 SP= 0.00E+00 SK= 0.00E+00
 bond charge predicted
       N       E                     dE             d eps       ncg     rms          rms(c)
DAV:   1    -0.332529029866E+03   -0.18183E-02   -0.27877E-03   360   0.100E-01    0.130E-02
DAV:   2    -0.332529039028E+03   -0.91619E-05   -0.14366E-04   280   0.256E-02    0.791E-03
DAV:   3    -0.332529039943E+03   -0.91520E-06   -0.19229E-05   220   0.994E-03    0.363E-03
DAV:   4    -0.332529040406E+03   -0.46317E-06   -0.43809E-06   220   0.461E-03    0.163E-03
DAV:   5    -0.332529040559E+03   -0.15327E-06   -0.10794E-06   220   0.243E-03    0.667E-04
DAV:   6    -0.332529040573E+03   -0.14124E-07   -0.26817E-07   220   0.133E-03
    2 T=     0. E= -.33252712E+03 F= -.33252904E+03 E0= -.33245128E+03  EK= 0.19197E-02 SP= 0.00E+00 SK= 0.00E+00
 bond charge predicted
 prediction of wavefunctions
       N       E                     dE             d eps       ncg     rms          rms(c)
DAV:   1    -0.332532015816E+03   -0.29753E-02   -0.26071E-03   360   0.109E-01    0.102E-02
DAV:   2    -0.332532043424E+03   -0.27607E-04   -0.29729E-04   300   0.332E-02    0.626E-03
DAV:   3    -0.332532044531E+03   -0.11073E-05   -0.20133E-05   220   0.101E-02    0.407E-03
DAV:   4    -0.332532045223E+03   -0.69207E-06   -0.49315E-06   220   0.505E-03    0.190E-03
DAV:   5    -0.332532045743E+03   -0.51979E-06   -0.15882E-06   220   0.275E-03    0.496E-04
DAV:   6    -0.332532045813E+03   -0.69964E-07   -0.33885E-07   220   0.133E-03
    3 T=     1. E= -.33252717E+03 F= -.33253205E+03 E0= -.33245425E+03  EK= 0.48803E-02 SP= 0.00E+00 SK= 0.00E+00
 bond charge predicted
 prediction of wavefunctions
       N       E                     dE             d eps       ncg     rms          rms(c)
DAV:   1    -0.332535658515E+03   -0.36128E-02   -0.10360E-03   320   0.100E-01    0.166E-02
DAV:   2    -0.332535701740E+03   -0.43225E-04   -0.47403E-04   340   0.410E-02    0.128E-02
DAV:   3    -0.332535700241E+03    0.14995E-05   -0.15101E-05   220   0.870E-03    0.768E-03
DAV:   4    -0.332535700280E+03   -0.38959E-07   -0.10519E-05   220   0.631E-03    0.194E-03
DAV:   5    -0.332535700477E+03   -0.19687E-06   -0.17574E-06   220   0.299E-03    0.106E-03
DAV:   6    -0.332535700464E+03    0.12483E-07   -0.37098E-07   220   0.163E-03
    4 T=     1. E= -.33252720E+03 F= -.33253570E+03 E0= -.33245785E+03  EK= 0.84987E-02 SP= 0.00E+00 SK= 0.00E+00
Information: wavefunction orthogonal band  160  0.7497
 bond charge predicted
 prediction of wavefunctions
       N       E                     dE             d eps       ncg     rms          rms(c)
DAV:   1    -0.332539515019E+03   -0.38145E-02   -0.10545E-03   220   0.973E-02    0.969E-04
DAV:   2    -0.332539516716E+03   -0.16977E-05   -0.16979E-05   220   0.635E-03    0.110E-03
DAV:   3    -0.332539517039E+03   -0.32260E-06   -0.32929E-06   220   0.307E-03    0.995E-04
DAV:   4    -0.332539517118E+03   -0.79489E-07   -0.10027E-06   220   0.160E-03    0.820E-04
DAV:   5    -0.332539517151E+03   -0.33131E-07   -0.59885E-07   220   0.142E-03    0.398E-04
DAV:   6    -0.332539517158E+03   -0.70222E-08   -0.23251E-07   220   0.807E-04
    5 T=     2. E= -.33252722E+03 F= -.33253952E+03 E0= -.33246159E+03  EK= 0.12297E-01 SP= 0.00E+00 SK= 0.00E+00
 bond charge predicted
 prediction of wavefunctions
       N       E                     dE             d eps       ncg     rms          rms(c)
DAV:   1    -0.332543329476E+03   -0.38123E-02   -0.14238E-03   260   0.106E-01    0.108E-03
DAV:   2    -0.332543332034E+03   -0.25578E-05   -0.26614E-05   260   0.570E-03    0.815E-04
DAV:   3    -0.332543332267E+03   -0.23308E-06   -0.25144E-06   220   0.216E-03    0.528E-04
DAV:   4    -0.332543332340E+03   -0.72832E-07   -0.72496E-07   220   0.111E-03    0.215E-04
DAV:   5    -0.332543332376E+03   -0.35718E-07   -0.29325E-07   220   0.650E-04    0.672E-05
DAV:   6    -0.332543332389E+03   -0.13033E-07   -0.11393E-07   220   0.361E-04
    6 T=     2. E= -.33252722E+03 F= -.33254333E+03 E0= -.33246531E+03  EK= 0.16114E-01 SP= 0.00E+00 SK= 0.00E+00
 bond charge predicted
 prediction of wavefunctions
       N       E                     dE             d eps       ncg     rms          rms(c)
DAV:   1    -0.332547274692E+03   -0.39423E-02   -0.16539E-03   200   0.111E-01    0.134E-03
DAV:   2    -0.332547275238E+03   -0.54564E-06   -0.59810E-06   220   0.450E-03    0.673E-04
DAV:   3    -0.332547275317E+03   -0.79305E-07   -0.81049E-07   220   0.186E-03    0.499E-04
DAV:   4    -0.332547275342E+03   -0.25031E-07   -0.24258E-07   160   0.987E-04    0.184E-04
DAV:   5    -0.332547275361E+03   -0.18436E-07   -0.98159E-08   160   0.495E-04    0.103E-04
DAV:   6    -0.332547275368E+03   -0.71886E-08   -0.37119E-08   160   0.259E-04
    7 T=     3. E= -.33252721E+03 F= -.33254728E+03 E0= -.33246915E+03  EK= 0.20061E-01 SP= 0.00E+00 SK= 0.00E+00
 bond charge predicted
 prediction of wavefunctions
       N       E                     dE             d eps       ncg     rms          rms(c)
DAV:   1    -0.332551517854E+03   -0.42425E-02   -0.18616E-03   220   0.119E-01    0.156E-03
DAV:   2    -0.332551519024E+03   -0.11704E-05   -0.13507E-05   220   0.638E-03    0.902E-04
DAV:   3    -0.332551519171E+03   -0.14709E-06   -0.16909E-06   220   0.269E-03    0.668E-04
DAV:   4    -0.332551519191E+03   -0.20113E-07   -0.37886E-07   220   0.119E-03    0.518E-04
DAV:   5    -0.332551519184E+03    0.73314E-08   -0.16411E-07   220   0.762E-04    0.152E-04
DAV:   6    -0.332551519193E+03   -0.90640E-08   -0.79374E-08   220   0.425E-04
    8 T=     3. E= -.33252723E+03 F= -.33255152E+03 E0= -.33247327E+03  EK= 0.24294E-01 SP= 0.00E+00 SK= 0.00E+00
 bond charge predicted
 prediction of wavefunctions
       N       E                     dE             d eps       ncg     rms          rms(c)
DAV:   1    -0.332556041077E+03   -0.45219E-02   -0.20352E-03   200   0.132E-01    0.218E-03
DAV:   2    -0.332556043383E+03   -0.23060E-05   -0.26494E-05   220   0.912E-03    0.140E-03
DAV:   3    -0.332556043587E+03   -0.20417E-06   -0.27289E-06   220   0.369E-03    0.105E-03
DAV:   4    -0.332556043599E+03   -0.12516E-07   -0.50770E-07   220   0.160E-03    0.847E-04
DAV:   5    -0.332556043564E+03    0.35101E-07   -0.24962E-07   220   0.110E-03    0.238E-04
DAV:   6    -0.332556043577E+03   -0.13152E-07   -0.11977E-07   220   0.593E-04
    9 T=     4. E= -.33252726E+03 F= -.33255604E+03 E0= -.33247768E+03  EK= 0.28788E-01 SP= 0.00E+00 SK= 0.00E+00
 bond charge predicted
 prediction of wavefunctions
       N       E                     dE             d eps       ncg     rms          rms(c)
DAV:   1    -0.332560546388E+03   -0.45028E-02   -0.21737E-03   200   0.148E-01    0.294E-03
DAV:   2    -0.332560550681E+03   -0.42933E-05   -0.48799E-05   220   0.123E-02    0.186E-03
DAV:   3    -0.332560551030E+03   -0.34842E-06   -0.48750E-06   200   0.501E-03    0.142E-03
DAV:   4    -0.332560551049E+03   -0.19159E-07   -0.90271E-07   160   0.217E-03    0.116E-03
DAV:   5    -0.332560550976E+03    0.72962E-07   -0.44213E-07   160   0.147E-03    0.330E-04
DAV:   6    -0.332560550999E+03   -0.22597E-07   -0.21110E-07   160   0.803E-04
   10 T=     4. E= -.33252730E+03 F= -.33256055E+03 E0= -.33248206E+03  EK= 0.33254E-01 SP= 0.00E+00 SK= 0.00E+00
 bond charge predicted
 prediction of wavefunctions
       N       E                     dE             d eps       ncg     rms          rms(c)
DAV:   1    -0.332564576964E+03   -0.40260E-02   -0.22848E-03   200   0.163E-01    0.370E-03
DAV:   2    -0.332564584641E+03   -0.76772E-05   -0.86199E-05   220   0.163E-02    0.253E-03
DAV:   3    -0.332564585222E+03   -0.58091E-06   -0.84130E-06   220   0.663E-03    0.199E-03
DAV:   4    -0.332564585254E+03   -0.31720E-07   -0.15711E-06   220   0.288E-03    0.169E-03
DAV:   5    -0.332564585075E+03    0.17865E-06   -0.83938E-07   220   0.203E-03    0.484E-04
DAV:   6    -0.332564585117E+03   -0.42093E-07   -0.41748E-07   220   0.112E-03
   11 T=     5. E= -.33252734E+03 F= -.33256459E+03 E0= -.33248596E+03  EK= 0.37249E-01 SP= 0.00E+00 SK= 0.00E+00
 bond charge predicted
 prediction of wavefunctions
       N       E                     dE             d eps       ncg     rms          rms(c)
DAV:   1    -0.332567734209E+03   -0.31491E-02   -0.23631E-03   220   0.174E-01    0.447E-03
DAV:   2    -0.332567746471E+03   -0.12261E-04   -0.13729E-04   240   0.202E-02    0.324E-03
DAV:   3    -0.332567747106E+03   -0.63545E-06   -0.10690E-05   200   0.751E-03    0.253E-03
DAV:   4    -0.332567747064E+03    0.41709E-07   -0.19891E-06   160   0.325E-03    0.205E-03
DAV:   5    -0.332567746804E+03    0.26028E-06   -0.11657E-06   160   0.235E-03    0.550E-04
DAV:   6    -0.332567746854E+03   -0.50357E-07   -0.51696E-07   160   0.130E-03
   12 T=     5. E= -.33252736E+03 F= -.33256775E+03 E0= -.33248898E+03  EK= 0.40384E-01 SP= 0.00E+00 SK= 0.00E+00
 bond charge predicted
 prediction of wavefunctions
       N       E                     dE             d eps       ncg     rms          rms(c)
DAV:   1    -0.332569830306E+03   -0.20835E-02   -0.23984E-03   220   0.180E-01    0.462E-03
DAV:   2    -0.332569844124E+03   -0.13818E-04   -0.15317E-04   200   0.214E-02    0.345E-03
DAV:   3    -0.332569844802E+03   -0.67773E-06   -0.11826E-05   160   0.801E-03    0.272E-03
DAV:   4    -0.332569844733E+03    0.68361E-07   -0.21744E-06   160   0.348E-03    0.218E-03
DAV:   5    -0.332569844437E+03    0.29671E-06   -0.13350E-06   160   0.252E-03    0.532E-04
DAV:   6    -0.332569844484E+03   -0.47503E-07   -0.50114E-07   160   0.132E-03
   13 T=     5. E= -.33252738E+03 F= -.33256984E+03 E0= -.33249093E+03  EK= 0.42467E-01 SP= 0.00E+00 SK= 0.00E+00
 bond charge predicted
 prediction of wavefunctions
       N       E                     dE             d eps       ncg     rms          rms(c)
DAV:   1    -0.332570871916E+03   -0.10275E-02   -0.23702E-03   180   0.181E-01    0.440E-03
DAV:   2    -0.332570881253E+03   -0.93378E-05   -0.10655E-04   220   0.185E-02    0.278E-03
DAV:   3    -0.332570881961E+03   -0.70797E-06   -0.10366E-05   220   0.759E-03    0.214E-03
DAV:   4    -0.332570881975E+03   -0.13490E-07   -0.18031E-06   220   0.330E-03    0.161E-03
DAV:   5    -0.332570881843E+03    0.13216E-06   -0.85966E-07   180   0.217E-03    0.358E-04
DAV:   6    -0.332570881877E+03   -0.34689E-07   -0.31498E-07   160   0.107E-03
   14 T=     5. E= -.33252739E+03 F= -.33257088E+03 E0= -.33249181E+03  EK= 0.43492E-01 SP= 0.00E+00 SK= 0.00E+00
 bond charge predicted
 prediction of wavefunctions
       N       E                     dE             d eps       ncg     rms          rms(c)
DAV:   1    -0.332570910153E+03   -0.28310E-04   -0.23174E-03   220   0.180E-01    0.379E-03
DAV:   2    -0.332570915239E+03   -0.50860E-05   -0.60767E-05   220   0.147E-02    0.186E-03
DAV:   3    -0.332570915733E+03   -0.49431E-06   -0.64011E-06   220   0.588E-03    0.136E-03
DAV:   4    -0.332570915798E+03   -0.65259E-07   -0.11830E-06   220   0.254E-03    0.972E-04
DAV:   5    -0.332570915782E+03    0.16937E-07   -0.43745E-07   220   0.159E-03    0.210E-04
DAV:   6    -0.332570915803E+03   -0.21570E-07   -0.17051E-07   220   0.790E-04
   15 T=     5. E= -.33252741E+03 F= -.33257092E+03 E0= -.33249166E+03  EK= 0.43511E-01 SP= 0.00E+00 SK= 0.00E+00
 bond charge predicted
 prediction of wavefunctions
       N       E                     dE             d eps       ncg     rms          rms(c)
DAV:   1    -0.332569951417E+03    0.96436E-03   -0.22621E-03   220   0.178E-01    0.335E-03
DAV:   2    -0.332569956313E+03   -0.48959E-05   -0.56363E-05   240   0.133E-02    0.153E-03
DAV:   3    -0.332569956709E+03   -0.39661E-06   -0.51293E-06   220   0.481E-03    0.107E-03
DAV:   4    -0.332569956793E+03   -0.83196E-07   -0.10754E-06   220   0.211E-03    0.693E-04
DAV:   5    -0.332569956809E+03   -0.16548E-07   -0.37137E-07   220   0.126E-03    0.162E-04
DAV:   6    -0.332569956827E+03   -0.17884E-07   -0.14311E-07   200   0.666E-04
   16 T=     5. E= -.33252742E+03 F= -.33256996E+03 E0= -.33249049E+03  EK= 0.42532E-01 SP= 0.00E+00 SK= 0.00E+00
 bond charge predicted
 prediction of wavefunctions
       N       E                     dE             d eps       ncg     rms          rms(c)
DAV:   1    -0.332567947441E+03    0.20094E-02   -0.22978E-03   360   0.175E-01    0.347E-03
DAV:   2    -0.332567958288E+03   -0.10847E-04   -0.11513E-04   280   0.163E-02    0.182E-03
DAV:   3    -0.332567958587E+03   -0.29924E-06   -0.46483E-06   220   0.439E-03    0.123E-03
DAV:   4    -0.332567958629E+03   -0.41307E-07   -0.10575E-06   220   0.204E-03    0.627E-04
DAV:   5    -0.332567958651E+03   -0.22128E-07   -0.37422E-07   220   0.117E-03    0.204E-04
DAV:   6    -0.332567958664E+03   -0.13485E-07   -0.11171E-07   220   0.633E-04
   17 T=     5. E= -.33252744E+03 F= -.33256796E+03 E0= -.33248826E+03  EK= 0.40521E-01 SP= 0.00E+00 SK= 0.00E+00
Information: wavefunction orthogonal band  160  0.7738
 bond charge predicted
 prediction of wavefunctions
       N       E                     dE             d eps       ncg     rms          rms(c)
DAV:   1    -0.332564941744E+03    0.30169E-02   -0.21962E-03   280   0.168E-01    0.405E-03
DAV:   2    -0.332564954477E+03   -0.12732E-04   -0.13731E-04   320   0.181E-02    0.252E-03
DAV:   3    -0.332564954586E+03   -0.10911E-06   -0.40249E-06   220   0.450E-03    0.181E-03
DAV:   4    -0.332564954470E+03    0.11546E-06   -0.11316E-06   220   0.238E-03    0.622E-04
DAV:   5    -0.332564954497E+03   -0.26875E-07   -0.42214E-07   220   0.127E-03    0.292E-04
DAV:   6    -0.332564954502E+03   -0.51896E-08   -0.82940E-08   220   0.621E-04
   18 T=     5. E= -.33252744E+03 F= -.33256495E+03 E0= -.33248499E+03  EK= 0.37516E-01 SP= 0.00E+00 SK= 0.00E+00
 bond charge predicted
 prediction of wavefunctions
       N       E                     dE             d eps       ncg     rms          rms(c)
DAV:   1    -0.332561148816E+03    0.38057E-02   -0.21028E-03   300   0.158E-01    0.430E-03
DAV:   2    -0.332561162180E+03   -0.13365E-04   -0.14448E-04   260   0.202E-02    0.310E-03
DAV:   3    -0.332561162543E+03   -0.36305E-06   -0.79566E-06   220   0.666E-03    0.237E-03
DAV:   4    -0.332561162382E+03    0.16129E-06   -0.16296E-06   220   0.313E-03    0.122E-03
DAV:   5    -0.332561162360E+03    0.22532E-07   -0.75796E-07   220   0.181E-03    0.341E-04
DAV:   6    -0.332561162375E+03   -0.15955E-07   -0.17076E-07   220   0.954E-04
   19 T=     4. E= -.33252743E+03 F= -.33256116E+03 E0= -.33248090E+03  EK= 0.33736E-01 SP= 0.00E+00 SK= 0.00E+00
 bond charge predicted
 prediction of wavefunctions
       N       E                     dE             d eps       ncg     rms          rms(c)
DAV:   1    -0.332556955918E+03    0.42064E-02   -0.19571E-03   220   0.146E-01    0.417E-03
DAV:   2    -0.332556967130E+03   -0.11212E-04   -0.12392E-04   240   0.192E-02    0.309E-03
DAV:   3    -0.332556967690E+03   -0.56011E-06   -0.93021E-06   220   0.726E-03    0.241E-03
DAV:   4    -0.332556967647E+03    0.42809E-07   -0.16944E-06   220   0.316E-03    0.185E-03
DAV:   5    -0.332556967484E+03    0.16287E-06   -0.99596E-07   220   0.221E-03    0.409E-04
DAV:   6    -0.332556967519E+03   -0.34495E-07   -0.34276E-07   220   0.113E-03
   20 T=     4. E= -.33252741E+03 F= -.33255697E+03 E0= -.33247637E+03  EK= 0.29555E-01 SP= 0.00E+00 SK= 0.00E+00
 bond charge predicted
 prediction of wavefunctions
       N       E                     dE             d eps       ncg     rms          rms(c)
DAV:   1    -0.332552754383E+03    0.42131E-02   -0.16719E-03   220   0.134E-01    0.356E-03
DAV:   2    -0.332552762173E+03   -0.77905E-05   -0.87575E-05   220   0.162E-02    0.268E-03
DAV:   3    -0.332552762816E+03   -0.64309E-06   -0.88737E-06   220   0.693E-03    0.210E-03
DAV:   4    -0.332552762859E+03   -0.42501E-07   -0.16217E-06   220   0.301E-03    0.184E-03
DAV:   5    -0.332552762683E+03    0.17578E-06   -0.97134E-07   220   0.224E-03    0.467E-04
DAV:   6    -0.332552762740E+03   -0.57284E-07   -0.45145E-07   220   0.118E-03
   21 T=     3. E= -.33252741E+03 F= -.33255276E+03 E0= -.33247178E+03  EK= 0.25354E-01 SP= 0.00E+00 SK= 0.00E+00
 bond charge predicted
 prediction of wavefunctions
       N       E                     dE             d eps       ncg     rms          rms(c)
DAV:   1    -0.332548759000E+03    0.40037E-02   -0.14705E-03   220   0.126E-01    0.299E-03
DAV:   2    -0.332548763708E+03   -0.47082E-05   -0.55070E-05   240   0.122E-02    0.196E-03
DAV:   3    -0.332548763992E+03   -0.28373E-06   -0.41889E-06   220   0.477E-03    0.147E-03
DAV:   4    -0.332548763992E+03   -0.89130E-10   -0.72236E-07   220   0.208E-03    0.110E-03
DAV:   5    -0.332548763952E+03    0.40128E-07   -0.38903E-07   220   0.140E-03    0.285E-04
DAV:   6    -0.332548763974E+03   -0.22081E-07   -0.15828E-07   220   0.749E-04
   22 T=     3. E= -.33252742E+03 F= -.33254876E+03 E0= -.33246736E+03  EK= 0.21345E-01 SP= 0.00E+00 SK= 0.00E+00
 bond charge predicted
 prediction of wavefunctions
       N       E                     dE             d eps       ncg     rms          rms(c)
DAV:   1    -0.332544939244E+03    0.38247E-02   -0.12521E-03   200   0.121E-01    0.208E-03
DAV:   2    -0.332544942015E+03   -0.27716E-05   -0.30916E-05   240   0.897E-03    0.148E-03
DAV:   3    -0.332544942156E+03   -0.14068E-06   -0.22519E-06   220   0.348E-03    0.114E-03
DAV:   4    -0.332544942144E+03    0.12558E-07   -0.40176E-07   220   0.156E-03    0.814E-04
DAV:   5    -0.332544942124E+03    0.19938E-07   -0.22541E-07   220   0.105E-03    0.213E-04
DAV:   6    -0.332544942136E+03   -0.12788E-07   -0.88651E-08   220   0.565E-04
   23 T=     2. E= -.33252744E+03 F= -.33254494E+03 E0= -.33246309E+03  EK= 0.17504E-01 SP= 0.00E+00 SK= 0.00E+00
 bond charge predicted
 prediction of wavefunctions
       N       E                     dE             d eps       ncg     rms          rms(c)
DAV:   1    -0.332541130619E+03    0.38115E-02   -0.10137E-03   220   0.116E-01    0.203E-03
DAV:   2    -0.332541132815E+03   -0.21965E-05   -0.25645E-05   200   0.833E-03    0.138E-03
DAV:   3    -0.332541133043E+03   -0.22736E-06   -0.29722E-06   220   0.370E-03    0.105E-03
DAV:   4    -0.332541133059E+03   -0.16462E-07   -0.56056E-07   220   0.162E-03    0.898E-04
DAV:   5    -0.332541133015E+03    0.44331E-07   -0.29252E-07   220   0.120E-03    0.264E-04
DAV:   6    -0.332541133035E+03   -0.19866E-07   -0.14867E-07   220   0.644E-04
   24 T=     2. E= -.33252745E+03 F= -.33254113E+03 E0= -.33245880E+03  EK= 0.13684E-01 SP= 0.00E+00 SK= 0.00E+00
 bond charge predicted
 prediction of wavefunctions
       N       E                     dE             d eps       ncg     rms          rms(c)
DAV:   1    -0.332537264529E+03    0.38685E-02   -0.76099E-04   220   0.106E-01    0.250E-03
DAV:   2    -0.332537267199E+03   -0.26701E-05   -0.33197E-05   220   0.962E-03    0.159E-03
DAV:   3    -0.332537267478E+03   -0.27868E-06   -0.37277E-06   220   0.428E-03    0.118E-03
DAV:   4    -0.332537267496E+03   -0.17823E-07   -0.65397E-07   220   0.186E-03    0.986E-04
DAV:   5    -0.332537267441E+03    0.55000E-07   -0.31612E-07   220   0.130E-03    0.302E-04
DAV:   6    -0.332537267461E+03   -0.20259E-07   -0.16397E-07   220   0.703E-04
   25 T=     1. E= -.33252744E+03 F= -.33253727E+03 E0= -.33245446E+03  EK= 0.98262E-02 SP= 0.00E+00 SK= 0.00E+00
 bond charge predicted
 prediction of wavefunctions
       N       E                     dE             d eps       ncg     rms          rms(c)
DAV:   1    -0.332533547139E+03    0.37203E-02   -0.51250E-04   220   0.906E-02    0.291E-03
DAV:   2    -0.332533551511E+03   -0.43720E-05   -0.50803E-05   220   0.121E-02    0.200E-03
DAV:   3    -0.332533551882E+03   -0.37131E-06   -0.54045E-06   220   0.527E-03    0.156E-03
DAV:   4    -0.332533551899E+03   -0.16840E-07   -0.96773E-07   220   0.230E-03    0.134E-03
DAV:   5    -0.332533551787E+03    0.11158E-06   -0.52743E-07   220   0.166E-03    0.408E-04
DAV:   6    -0.332533551824E+03   -0.36370E-07   -0.29237E-07   220   0.926E-04
   26 T=     1. E= -.33252741E+03 F= -.33253355E+03 E0= -.33245030E+03  EK= 0.61372E-02 SP= 0.00E+00 SK= 0.00E+00
 bond charge predicted
 prediction of wavefunctions
       N       E                     dE             d eps       ncg     rms          rms(c)
DAV:   1    -0.332530451481E+03    0.31003E-02   -0.30007E-04   220   0.697E-02    0.339E-03
DAV:   2    -0.332530457347E+03   -0.58670E-05   -0.66950E-05   200   0.143E-02    0.223E-03
DAV:   3    -0.332530457895E+03   -0.54735E-06   -0.68877E-06   220   0.609E-03    0.174E-03
DAV:   4    -0.332530457944E+03   -0.49620E-07   -0.12438E-06   200   0.269E-03    0.141E-03
DAV:   5    -0.332530457880E+03    0.64571E-07   -0.58862E-07   220   0.178E-03    0.370E-04
DAV:   6    -0.332530457925E+03   -0.45366E-07   -0.25082E-07   220   0.924E-04
   27 T=     0. E= -.33252738E+03 F= -.33253046E+03 E0= -.33244683E+03  EK= 0.30745E-02 SP= 0.00E+00 SK= 0.00E+00
 bond charge predicted
 prediction of wavefunctions
       N       E                     dE             d eps       ncg     rms          rms(c)
DAV:   1    -0.332528505753E+03    0.19521E-02   -0.13311E-04   200   0.468E-02    0.262E-03
DAV:   2    -0.332528509925E+03   -0.41718E-05   -0.44914E-05   220   0.121E-02    0.180E-03
DAV:   3    -0.332528510322E+03   -0.39715E-06   -0.46479E-06   200   0.508E-03    0.144E-03
DAV:   4    -0.332528510375E+03   -0.52944E-07   -0.88731E-07   160   0.228E-03    0.123E-03
DAV:   5    -0.332528510349E+03    0.26003E-07   -0.44656E-07   160   0.157E-03    0.284E-04
DAV:   6    -0.332528510386E+03   -0.37174E-07   -0.17711E-07   160   0.789E-04
   28 T=     0. E= -.33252737E+03 F= -.33252851E+03 E0= -.33244461E+03  EK= 0.11447E-02 SP= 0.00E+00 SK= 0.00E+00
 bond charge predicted
 prediction of wavefunctions
       N       E                     dE             d eps       ncg     rms          rms(c)
DAV:   1    -0.332528008746E+03    0.50160E-03   -0.29061E-05   220   0.324E-02    0.171E-03
DAV:   2    -0.332528010270E+03   -0.15237E-05   -0.16579E-05   220   0.727E-03    0.115E-03
DAV:   3    -0.332528010429E+03   -0.15904E-06   -0.18300E-06   220   0.315E-03    0.903E-04
DAV:   4    -0.332528010453E+03   -0.24856E-07   -0.34284E-07   220   0.142E-03    0.747E-04
DAV:   5    -0.332528010452E+03    0.18235E-08   -0.16046E-07   220   0.973E-04    0.167E-04
DAV:   6    -0.332528010466E+03   -0.14702E-07   -0.64638E-08   220   0.486E-04
   29 T=     0. E= -.33252737E+03 F= -.33252801E+03 E0= -.33244397E+03  EK= 0.63927E-03 SP= 0.00E+00 SK= 0.00E+00
 bond charge predicted
 prediction of wavefunctions
       N       E                     dE             d eps       ncg     rms          rms(c)
DAV:   1    -0.332528887986E+03   -0.87753E-03   -0.31313E-05   220   0.426E-02    0.925E-04
DAV:   2    -0.332528888469E+03   -0.48330E-06   -0.53449E-06   200   0.388E-03    0.635E-04
DAV:   3    -0.332528888514E+03   -0.44615E-07   -0.61106E-07   220   0.169E-03    0.482E-04
DAV:   4    -0.332528888521E+03   -0.68867E-08   -0.11966E-07   220   0.747E-04    0.408E-04
DAV:   5    -0.332528888518E+03    0.32996E-08   -0.70945E-08   220   0.560E-04    0.910E-05
DAV:   6    -0.332528888523E+03   -0.50259E-08   -0.28081E-08   220   0.284E-04
   30 T=     0. E= -.33252739E+03 F= -.33252889E+03 E0= -.33244486E+03  EK= 0.14941E-02 SP= 0.00E+00 SK= 0.00E+00
 bond charge predicted
 prediction of wavefunctions
       N       E                     dE             d eps       ncg     rms          rms(c)
DAV:   1    -0.332530785618E+03   -0.18971E-02   -0.13815E-04   200   0.621E-02    0.166E-03
DAV:   2    -0.332530787004E+03   -0.13859E-05   -0.15542E-05   220   0.688E-03    0.106E-03
DAV:   3    -0.332530787101E+03   -0.96519E-07   -0.15090E-06   220   0.287E-03    0.819E-04
DAV:   4    -0.332530787099E+03    0.13997E-08   -0.27860E-07   220   0.125E-03    0.695E-04
DAV:   5    -0.332530787061E+03    0.37999E-07   -0.13793E-07   220   0.844E-04    0.199E-04
DAV:   6    -0.332530787061E+03    0.37653E-09   -0.54655E-08   220   0.430E-04
   31 T=     0. E= -.33252742E+03 F= -.33253079E+03 E0= -.33244693E+03  EK= 0.33677E-02 SP= 0.00E+00 SK= 0.00E+00
 bond charge predicted
 prediction of wavefunctions
       N       E                     dE             d eps       ncg     rms          rms(c)
DAV:   1    -0.332533302565E+03   -0.25155E-02   -0.31600E-04   220   0.780E-02    0.265E-03
DAV:   2    -0.332533306432E+03   -0.38666E-05   -0.43373E-05   180   0.114E-02    0.181E-03
DAV:   3    -0.332533306704E+03   -0.27201E-06   -0.42740E-06   220   0.472E-03    0.140E-03
DAV:   4    -0.332533306716E+03   -0.12166E-07   -0.82620E-07   220   0.205E-03    0.124E-03
DAV:   5    -0.332533306597E+03    0.11923E-06   -0.43499E-07   220   0.148E-03    0.370E-04
DAV:   6    -0.332533306603E+03   -0.61891E-08   -0.19533E-07   220   0.771E-04
   32 T=     1. E= -.33252743E+03 F= -.33253331E+03 E0= -.33244976E+03  EK= 0.58756E-02 SP= 0.00E+00 SK= 0.00E+00
 bond charge predicted
 prediction of wavefunctions
       N       E                     dE             d eps       ncg     rms          rms(c)
DAV:   1    -0.332536226670E+03   -0.29201E-02   -0.54348E-04   220   0.880E-02    0.314E-03
DAV:   2    -0.332536231408E+03   -0.47382E-05   -0.54948E-05   220   0.130E-02    0.204E-03
DAV:   3    -0.332536231756E+03   -0.34781E-06   -0.54438E-06   220   0.541E-03    0.155E-03
DAV:   4    -0.332536231767E+03   -0.11065E-07   -0.99539E-07   220   0.235E-03    0.137E-03
DAV:   5    -0.332536231624E+03    0.14280E-06   -0.52390E-07   220   0.172E-03    0.397E-04
DAV:   6    -0.332536231635E+03   -0.11182E-07   -0.25465E-07   220   0.893E-04
   33 T=     1. E= -.33252743E+03 F= -.33253623E+03 E0= -.33245311E+03  EK= 0.88056E-02 SP= 0.00E+00 SK= 0.00E+00
 bond charge predicted
 prediction of wavefunctions
       N       E                     dE             d eps       ncg     rms          rms(c)
DAV:   1    -0.332539576007E+03   -0.33444E-02   -0.80163E-04   220   0.937E-02    0.275E-03
DAV:   2    -0.332539579992E+03   -0.39855E-05   -0.46339E-05   180   0.117E-02    0.189E-03
DAV:   3    -0.332539580308E+03   -0.31630E-06   -0.51286E-06   220   0.504E-03    0.146E-03
DAV:   4    -0.332539580325E+03   -0.16835E-07   -0.10039E-06   220   0.221E-03    0.131E-03
DAV:   5    -0.332539580189E+03    0.13603E-06   -0.53460E-07   220   0.168E-03    0.400E-04
DAV:   6    -0.332539580204E+03   -0.14597E-07   -0.31088E-07   220   0.935E-04
   34 T=     2. E= -.33252741E+03 F= -.33253958E+03 E0= -.33245697E+03  EK= 0.12166E-01 SP= 0.00E+00 SK= 0.00E+00
 bond charge predicted
 prediction of wavefunctions
       N       E                     dE             d eps       ncg     rms          rms(c)
DAV:   1    -0.332543456292E+03   -0.38761E-02   -0.10806E-03   220   0.994E-02    0.256E-03
DAV:   2    -0.332543461001E+03   -0.47099E-05   -0.53895E-05   200   0.106E-02    0.182E-03
DAV:   3    -0.332543461154E+03   -0.15223E-06   -0.35547E-06   220   0.424E-03    0.135E-03
DAV:   4    -0.332543461118E+03    0.35895E-07   -0.60958E-07   220   0.188E-03    0.101E-03
DAV:   5    -0.332543461039E+03    0.78519E-07   -0.35013E-07   220   0.130E-03    0.253E-04
DAV:   6    -0.332543461049E+03   -0.94205E-08   -0.14186E-07   220   0.704E-04
   35 T=     2. E= -.33252741E+03 F= -.33254346E+03 E0= -.33246140E+03  EK= 0.16053E-01 SP= 0.00E+00 SK= 0.00E+00
 bond charge predicted
 prediction of wavefunctions
       N       E                     dE             d eps       ncg     rms          rms(c)
DAV:   1    -0.332547859773E+03   -0.43987E-02   -0.13540E-03   220   0.109E-01    0.249E-03
DAV:   2    -0.332547863834E+03   -0.40609E-05   -0.46644E-05   220   0.107E-02    0.183E-03
DAV:   3    -0.332547863972E+03   -0.13804E-06   -0.35875E-06   220   0.428E-03    0.136E-03
DAV:   4    -0.332547863930E+03    0.42143E-07   -0.62996E-07   220   0.191E-03    0.100E-03
DAV:   5    -0.332547863852E+03    0.78309E-07   -0.38204E-07   220   0.133E-03    0.225E-04
DAV:   6    -0.332547863863E+03   -0.11201E-07   -0.14567E-07   220   0.715E-04
   36 T=     3. E= -.33252742E+03 F= -.33254786E+03 E0= -.33246634E+03  EK= 0.20448E-01 SP= 0.00E+00 SK= 0.00E+00
 bond charge predicted
 prediction of wavefunctions
       N       E                     dE             d eps       ncg     rms          rms(c)
DAV:   1    -0.332552543415E+03   -0.46796E-02   -0.15978E-03   220   0.122E-01    0.291E-03
DAV:   2    -0.332552548167E+03   -0.47521E-05   -0.55818E-05   200   0.130E-02    0.224E-03
DAV:   3    -0.332552548457E+03   -0.28972E-06   -0.58997E-06   220   0.561E-03    0.173E-03
DAV:   4    -0.332552548423E+03    0.33514E-07   -0.10191E-06   220   0.247E-03    0.143E-03
DAV:   5    -0.332552548241E+03    0.18192E-06   -0.65029E-07   220   0.185E-03    0.358E-04
DAV:   6    -0.332552548262E+03   -0.20294E-07   -0.33316E-07   220   0.991E-04
   37 T=     3. E= -.33252743E+03 F= -.33255255E+03 E0= -.33247152E+03  EK= 0.25115E-01 SP= 0.00E+00 SK= 0.00E+00
 bond charge predicted
 prediction of wavefunctions
       N       E                     dE             d eps       ncg     rms          rms(c)
DAV:   1    -0.332557100671E+03   -0.45524E-02   -0.18041E-03   220   0.137E-01    0.385E-03
DAV:   2    -0.332557110996E+03   -0.10325E-04   -0.11838E-04   220   0.170E-02    0.289E-03
DAV:   3    -0.332557111407E+03   -0.41089E-06   -0.90084E-06   220   0.684E-03    0.219E-03
DAV:   4    -0.332557111344E+03    0.62656E-07   -0.15720E-06   220   0.303E-03    0.168E-03
DAV:   5    -0.332557111127E+03    0.21733E-06   -0.99695E-07   220   0.218E-03    0.366E-04
DAV:   6    -0.332557111156E+03   -0.29436E-07   -0.39934E-07   220   0.117E-03
   38 T=     4. E= -.33252745E+03 F= -.33255711E+03 E0= -.33247652E+03  EK= 0.29665E-01 SP= 0.00E+00 SK= 0.00E+00
 bond charge predicted
 prediction of wavefunctions
       N       E                     dE             d eps       ncg     rms          rms(c)
DAV:   1    -0.332561165022E+03   -0.40539E-02   -0.20028E-03   280   0.150E-01    0.401E-03
DAV:   2    -0.332561179665E+03   -0.14642E-04   -0.15770E-04   280   0.209E-02    0.351E-03
DAV:   3    -0.332561179964E+03   -0.29892E-06   -0.88829E-06   220   0.678E-03    0.271E-03
DAV:   4    -0.332561179715E+03    0.24914E-06   -0.17765E-06   220   0.316E-03    0.168E-03
DAV:   5    -0.332561179560E+03    0.15497E-06   -0.11389E-06   220   0.217E-03    0.367E-04
DAV:   6    -0.332561179590E+03   -0.30644E-07   -0.34588E-07   220   0.122E-03
   39 T=     4. E= -.33252745E+03 F= -.33256118E+03 E0= -.33248095E+03  EK= 0.33734E-01 SP= 0.00E+00 SK= 0.00E+00
 bond charge predicted
 prediction of wavefunctions
       N       E                     dE             d eps       ncg     rms          rms(c)
DAV:   1    -0.332564552184E+03   -0.33726E-02   -0.21526E-03   220   0.159E-01    0.452E-03
DAV:   2    -0.332564570799E+03   -0.18614E-04   -0.19978E-04   280   0.217E-02    0.380E-03
DAV:   3    -0.332564571141E+03   -0.34206E-06   -0.97548E-06   220   0.729E-03    0.294E-03
DAV:   4    -0.332564570831E+03    0.30950E-06   -0.18741E-06   220   0.337E-03    0.177E-03
DAV:   5    -0.332564570679E+03    0.15261E-06   -0.11429E-06   220   0.222E-03    0.416E-04
DAV:   6    -0.332564570706E+03   -0.27680E-07   -0.31912E-07   220   0.122E-03
   40 T=     5. E= -.33252743E+03 F= -.33256457E+03 E0= -.33248464E+03  EK= 0.37141E-01 SP= 0.00E+00 SK= 0.00E+00
 bond charge predicted
 prediction of wavefunctions
       N       E                     dE             d eps       ncg     rms          rms(c)
DAV:   1    -0.332567280704E+03   -0.27100E-02   -0.22060E-03   260   0.165E-01    0.430E-03
DAV:   2    -0.332567293823E+03   -0.13120E-04   -0.14244E-04   260   0.192E-02    0.311E-03
DAV:   3    -0.332567294230E+03   -0.40688E-06   -0.77930E-06   220   0.654E-03    0.233E-03
DAV:   4    -0.332567294076E+03    0.15426E-06   -0.15304E-06   220   0.301E-03    0.124E-03
DAV:   5    -0.332567294048E+03    0.27960E-07   -0.74542E-07   220   0.180E-03    0.329E-04
DAV:   6    -0.332567294058E+03   -0.10064E-07   -0.18228E-07   220   0.956E-04
   41 T=     5. E= -.33252741E+03 F= -.33256729E+03 E0= -.33248761E+03  EK= 0.39883E-01 SP= 0.00E+00 SK= 0.00E+00
 bond charge predicted
 prediction of wavefunctions
       N       E                     dE             d eps       ncg     rms          rms(c)
DAV:   1    -0.332569393737E+03   -0.20997E-02   -0.22199E-03   220   0.172E-01    0.363E-03
DAV:   2    -0.332569402906E+03   -0.91686E-05   -0.99162E-05   260   0.151E-02    0.226E-03
DAV:   3    -0.332569403379E+03   -0.47356E-06   -0.68975E-06   220   0.582E-03    0.165E-03
DAV:   4    -0.332569403360E+03    0.19472E-07   -0.13216E-06   220   0.266E-03    0.899E-04
DAV:   5    -0.332569403346E+03    0.14425E-07   -0.51090E-07   220   0.151E-03    0.249E-04
DAV:   6    -0.332569403352E+03   -0.66257E-08   -0.13532E-07   220   0.779E-04
   42 T=     5. E= -.33252740E+03 F= -.33256940E+03 E0= -.33248993E+03  EK= 0.42002E-01 SP= 0.00E+00 SK= 0.00E+00
 bond charge predicted
 prediction of wavefunctions
       N       E                     dE             d eps       ncg     rms          rms(c)
DAV:   1    -0.332570809925E+03   -0.14066E-02   -0.22988E-03   280   0.179E-01    0.300E-03
DAV:   2    -0.332570818114E+03   -0.81893E-05   -0.86725E-05   300   0.135E-02    0.180E-03
DAV:   3    -0.332570818390E+03   -0.27567E-06   -0.43563E-06   220   0.421E-03    0.125E-03
DAV:   4    -0.332570818380E+03    0.10233E-07   -0.10573E-06   220   0.207E-03    0.460E-04
DAV:   5    -0.332570818399E+03   -0.19102E-07   -0.35357E-07   220   0.111E-03    0.221E-04
DAV:   6    -0.332570818400E+03   -0.74579E-09   -0.92249E-08   220   0.569E-04
   43 T=     5. E= -.33252740E+03 F= -.33257082E+03 E0= -.33249153E+03  EK= 0.43417E-01 SP= 0.00E+00 SK= 0.00E+00
 bond charge predicted
 prediction of wavefunctions
       N       E                     dE             d eps       ncg     rms          rms(c)
DAV:   1    -0.332571271402E+03   -0.45300E-03   -0.23866E-03   360   0.186E-01    0.304E-03
DAV:   2    -0.332571280845E+03   -0.94426E-05   -0.99453E-05   300   0.145E-02    0.184E-03
DAV:   3    -0.332571281075E+03   -0.23010E-06   -0.42862E-06   220   0.411E-03    0.129E-03
DAV:   4    -0.332571281040E+03    0.34859E-07   -0.11236E-06   220   0.211E-03    0.439E-04
DAV:   5    -0.332571281063E+03   -0.23358E-07   -0.37656E-07   220   0.115E-03    0.219E-04
DAV:   6    -0.332571281066E+03   -0.31050E-08   -0.90475E-08   220   0.595E-04
   44 T=     5. E= -.33252741E+03 F= -.33257128E+03 E0= -.33249216E+03  EK= 0.43874E-01 SP= 0.00E+00 SK= 0.00E+00
 bond charge predicted
 prediction of wavefunctions
       N       E                     dE             d eps       ncg     rms          rms(c)
DAV:   1    -0.332570464149E+03    0.81691E-03   -0.24250E-03   300   0.188E-01    0.360E-03
DAV:   2    -0.332570477315E+03   -0.13166E-04   -0.13907E-04   340   0.171E-02    0.260E-03
DAV:   3    -0.332570477360E+03   -0.44763E-07   -0.48541E-06   220   0.450E-03    0.184E-03
DAV:   4    -0.332570477186E+03    0.17380E-06   -0.17180E-06   220   0.258E-03    0.537E-04
DAV:   5    -0.332570477216E+03   -0.29609E-07   -0.57432E-07   220   0.147E-03    0.315E-04
DAV:   6    -0.332570477223E+03   -0.74979E-08   -0.12770E-07   220   0.739E-04
   45 T=     5. E= -.33252740E+03 F= -.33257048E+03 E0= -.33249152E+03  EK= 0.43075E-01 SP= 0.00E+00 SK= 0.00E+00
Information: wavefunction orthogonal band  160  0.8899
 bond charge predicted
 prediction of wavefunctions
       N       E                     dE             d eps       ncg     rms          rms(c)
DAV:   1    -0.332568264962E+03    0.22123E-02   -0.23270E-03   180   0.184E-01    0.453E-03
DAV:   2    -0.332568278264E+03   -0.13303E-04   -0.14762E-04   300   0.194E-02    0.334E-03
DAV:   3    -0.332568278331E+03   -0.66403E-07   -0.79431E-06   220   0.643E-03    0.247E-03
DAV:   4    -0.332568277995E+03    0.33537E-06   -0.17433E-06   220   0.321E-03    0.116E-03
DAV:   5    -0.332568277937E+03    0.57810E-07   -0.94325E-07   220   0.191E-03    0.358E-04
DAV:   6    -0.332568277945E+03   -0.73633E-08   -0.19196E-07   220   0.101E-03
   46 T=     5. E= -.33252737E+03 F= -.33256828E+03 E0= -.33248947E+03  EK= 0.40903E-01 SP= 0.00E+00 SK= 0.00E+00
 bond charge predicted
 prediction of wavefunctions
       N       E                     dE             d eps       ncg     rms          rms(c)
DAV:   1    -0.332564868511E+03    0.34094E-02   -0.23244E-03   220   0.174E-01    0.487E-03
DAV:   2    -0.332564886809E+03   -0.18299E-04   -0.20020E-04   260   0.223E-02    0.388E-03
DAV:   3    -0.332564886998E+03   -0.18891E-06   -0.97668E-06   220   0.711E-03    0.289E-03
DAV:   4    -0.332564886583E+03    0.41516E-06   -0.23197E-06   220   0.353E-03    0.136E-03
DAV:   5    -0.332564886524E+03    0.59066E-07   -0.12310E-06   220   0.209E-03    0.455E-04
DAV:   6    -0.332564886534E+03   -0.98635E-08   -0.27379E-07   220   0.112E-03
   47 T=     5. E= -.33252733E+03 F= -.33256489E+03 E0= -.33248623E+03  EK= 0.37555E-01 SP= 0.00E+00 SK= 0.00E+00
 bond charge predicted
 prediction of wavefunctions
       N       E                     dE             d eps       ncg     rms          rms(c)
DAV:   1    -0.332560759927E+03    0.41266E-02   -0.22531E-03   220   0.158E-01    0.428E-03
DAV:   2    -0.332560771183E+03   -0.11256E-04   -0.12599E-04   220   0.197E-02    0.290E-03
DAV:   3    -0.332560772069E+03   -0.88613E-06   -0.12414E-05   220   0.809E-03    0.234E-03
DAV:   4    -0.332560772160E+03   -0.90449E-07   -0.24118E-06   220   0.359E-03    0.210E-03
DAV:   5    -0.332560771867E+03    0.29315E-06   -0.13277E-06   220   0.262E-03    0.600E-04
DAV:   6    -0.332560771932E+03   -0.65622E-07   -0.71278E-07   220   0.145E-03
   48 T=     4. E= -.33252729E+03 F= -.33256077E+03 E0= -.33248227E+03  EK= 0.33486E-01 SP= 0.00E+00 SK= 0.00E+00
 bond charge predicted
 prediction of wavefunctions
       N       E                     dE             d eps       ncg     rms          rms(c)
DAV:   1    -0.332556439347E+03    0.43325E-02   -0.21768E-03   220   0.141E-01    0.416E-03
DAV:   2    -0.332556447386E+03   -0.80381E-05   -0.98439E-05   280   0.157E-02    0.249E-03
DAV:   3    -0.332556447660E+03   -0.27490E-06   -0.54618E-06   220   0.521E-03    0.174E-03
DAV:   4    -0.332556447621E+03    0.39634E-07   -0.10198E-06   220   0.238E-03    0.940E-04
DAV:   5    -0.332556447608E+03    0.12612E-07   -0.39828E-07   220   0.130E-03    0.287E-04
DAV:   6    -0.332556447622E+03   -0.14174E-07   -0.10601E-07   220   0.705E-04
   49 T=     4. E= -.33252725E+03 F= -.33255645E+03 E0= -.33247809E+03  EK= 0.29194E-01 SP= 0.00E+00 SK= 0.00E+00
 bond charge predicted
 prediction of wavefunctions
       N       E                     dE             d eps       ncg     rms          rms(c)
DAV:   1    -0.332552225605E+03    0.42220E-02   -0.21319E-03   260   0.128E-01    0.242E-03
DAV:   2    -0.332552231127E+03   -0.55214E-05   -0.59399E-05   280   0.115E-02    0.185E-03
DAV:   3    -0.332552231208E+03   -0.80715E-07   -0.28960E-06   220   0.362E-03    0.141E-03
DAV:   4    -0.332552231092E+03    0.11598E-06   -0.85056E-07   220   0.199E-03    0.424E-04
DAV:   5    -0.332552231113E+03   -0.21524E-07   -0.28346E-07   220   0.102E-03    0.221E-04
DAV:   6    -0.332552231119E+03   -0.62610E-08   -0.52327E-08   220   0.477E-04
   50 T=     3. E= -.33252724E+03 F= -.33255223E+03 E0= -.33247400E+03  EK= 0.24987E-01 SP= 0.00E+00 SK= 0.00E+00
 bond charge predicted
 prediction of wavefunctions
       N       E                     dE             d eps       ncg     rms          rms(c)
DAV:   1    -0.332548130911E+03    0.41002E-02   -0.20349E-03   320   0.122E-01    0.215E-03
DAV:   2    -0.332548135871E+03   -0.49596E-05   -0.53533E-05   240   0.106E-02    0.172E-03
DAV:   3    -0.332548136076E+03   -0.20454E-06   -0.36967E-06   220   0.397E-03    0.131E-03
DAV:   4    -0.332548136044E+03    0.31726E-07   -0.67856E-07   220   0.176E-03    0.828E-04
DAV:   5    -0.332548136008E+03    0.36311E-07   -0.31126E-07   220   0.108E-03    0.227E-04
DAV:   6    -0.332548136017E+03   -0.98871E-08   -0.10808E-07   220   0.598E-04
   51 T=     3. E= -.33252724E+03 F= -.33254814E+03 E0= -.33247003E+03  EK= 0.20896E-01 SP= 0.00E+00 SK= 0.00E+00
 bond charge predicted
 prediction of wavefunctions
       N       E                     dE             d eps       ncg     rms          rms(c)
DAV:   1    -0.332544022746E+03    0.41133E-02   -0.17941E-03   280   0.117E-01    0.239E-03
DAV:   2    -0.332544029027E+03   -0.62809E-05   -0.67885E-05   280   0.115E-02    0.192E-03
DAV:   3    -0.332544029170E+03   -0.14295E-06   -0.35283E-06   220   0.390E-03    0.146E-03
DAV:   4    -0.332544029125E+03    0.44728E-07   -0.68892E-07   220   0.170E-03    0.104E-03
DAV:   5    -0.332544029056E+03    0.69319E-07   -0.39945E-07   220   0.123E-03    0.295E-04
DAV:   6    -0.332544029069E+03   -0.12924E-07   -0.17116E-07   220   0.719E-04
   52 T=     2. E= -.33252724E+03 F= -.33254403E+03 E0= -.33246602E+03  EK= 0.16794E-01 SP= 0.00E+00 SK= 0.00E+00
 bond charge predicted
 prediction of wavefunctions
       N       E                     dE             d eps       ncg     rms          rms(c)
DAV:   1    -0.332539826341E+03    0.42027E-02   -0.14832E-03   280   0.109E-01    0.270E-03
DAV:   2    -0.332539832196E+03   -0.58548E-05   -0.64771E-05   240   0.131E-02    0.229E-03
DAV:   3    -0.332539832364E+03   -0.16789E-06   -0.43863E-06   220   0.480E-03    0.176E-03
DAV:   4    -0.332539832300E+03    0.64003E-07   -0.80001E-07   220   0.207E-03    0.132E-03
DAV:   5    -0.332539832192E+03    0.10739E-06   -0.55238E-07   220   0.151E-03    0.344E-04
DAV:   6    -0.332539832212E+03   -0.20034E-07   -0.23546E-07   220   0.877E-04
   53 T=     2. E= -.33252721E+03 F= -.33253983E+03 E0= -.33246191E+03  EK= 0.12620E-01 SP= 0.00E+00 SK= 0.00E+00
 bond charge predicted
 prediction of wavefunctions
       N       E                     dE             d eps       ncg     rms          rms(c)
DAV:   1    -0.332535723315E+03    0.41089E-02   -0.10808E-03   220   0.975E-02    0.323E-03
DAV:   2    -0.332535730325E+03   -0.70101E-05   -0.79338E-05   220   0.149E-02    0.265E-03
DAV:   3    -0.332535730751E+03   -0.42593E-06   -0.78185E-06   220   0.654E-03    0.214E-03
DAV:   4    -0.332535730762E+03   -0.11160E-07   -0.14072E-06   220   0.284E-03    0.197E-03
DAV:   5    -0.332535730471E+03    0.29060E-06   -0.85253E-07   220   0.206E-03    0.762E-04
DAV:   6    -0.332535730513E+03   -0.41461E-07   -0.76809E-07   220   0.148E-03
   54 T=     1. E= -.33252718E+03 F= -.33253573E+03 E0= -.33245787E+03  EK= 0.85514E-02 SP= 0.00E+00 SK= 0.00E+00
 bond charge predicted
 prediction of wavefunctions
       N       E                     dE             d eps       ncg     rms          rms(c)
DAV:   1    -0.332532126885E+03    0.36036E-02   -0.71034E-04   220   0.816E-02    0.317E-03
DAV:   2    -0.332532135327E+03   -0.84423E-05   -0.91406E-05   220   0.161E-02    0.299E-03
DAV:   3    -0.332532135830E+03   -0.50255E-06   -0.91074E-06   220   0.703E-03    0.252E-03
DAV:   4    -0.332532135814E+03    0.15128E-07   -0.16533E-06   220   0.309E-03    0.230E-03
DAV:   5    -0.332532135404E+03    0.41032E-06   -0.14577E-06   220   0.258E-03    0.641E-04
DAV:   6    -0.332532135479E+03   -0.75053E-07   -0.84555E-07   220   0.152E-03
   55 T=     1. E= -.33252714E+03 F= -.33253214E+03 E0= -.33245431E+03  EK= 0.49912E-02 SP= 0.00E+00 SK= 0.00E+00
 bond charge predicted
 prediction of wavefunctions
       N       E                     dE             d eps       ncg     rms          rms(c)
DAV:   1    -0.332529511174E+03    0.26242E-02   -0.34583E-04   200   0.630E-02    0.305E-03
DAV:   2    -0.332529516620E+03   -0.54455E-05   -0.61795E-05   220   0.135E-02    0.224E-03
DAV:   3    -0.332529517044E+03   -0.42438E-06   -0.64864E-06   220   0.587E-03    0.176E-03
DAV:   4    -0.332529517051E+03   -0.64920E-08   -0.11679E-06   220   0.258E-03    0.149E-03
DAV:   5    -0.332529516909E+03    0.14171E-06   -0.64387E-07   220   0.181E-03    0.398E-04
DAV:   6    -0.332529516930E+03   -0.20827E-07   -0.30072E-07   220   0.972E-04
   56 T=     0. E= -.33252712E+03 F= -.33252952E+03 E0= -.33245172E+03  EK= 0.23953E-02 SP= 0.00E+00 SK= 0.00E+00
 bond charge predicted
 prediction of wavefunctions
       N       E                     dE             d eps       ncg     rms          rms(c)
DAV:   1    -0.332528179359E+03    0.13375E-02   -0.10733E-04   220   0.493E-02    0.191E-03
DAV:   2    -0.332528181675E+03   -0.23162E-05   -0.25844E-05   220   0.891E-03    0.151E-03
DAV:   3    -0.332528181859E+03   -0.18366E-06   -0.27197E-06   220   0.379E-03    0.120E-03
DAV:   4    -0.332528181858E+03    0.11059E-08   -0.49412E-07   220   0.167E-03    0.104E-03
DAV:   5    -0.332528181788E+03    0.69605E-07   -0.29540E-07   220   0.126E-03    0.275E-04
DAV:   6    -0.332528181798E+03   -0.91550E-08   -0.13254E-07   220   0.647E-04
   57 T=     0. E= -.33252712E+03 F= -.33252818E+03 E0= -.33245039E+03  EK= 0.10640E-02 SP= 0.00E+00 SK= 0.00E+00
 bond charge predicted
 prediction of wavefunctions
       N       E                     dE             d eps       ncg     rms          rms(c)
DAV:   1    -0.332528170044E+03    0.11744E-04   -0.31713E-05   220   0.447E-02    0.135E-03
DAV:   2    -0.332528170903E+03   -0.85873E-06   -0.10047E-05   200   0.563E-03    0.895E-04
DAV:   3    -0.332528170993E+03   -0.89855E-07   -0.11291E-06   220   0.238E-03    0.673E-04
DAV:   4    -0.332528170995E+03   -0.18990E-08   -0.20888E-07   200   0.105E-03    0.524E-04
DAV:   5    -0.332528170982E+03    0.12430E-07   -0.86587E-08   220   0.680E-04    0.148E-04
DAV:   6    -0.332528170986E+03   -0.42646E-08   -0.36694E-08   220   0.350E-04
   58 T=     0. E= -.33252713E+03 F= -.33252817E+03 E0= -.33245037E+03  EK= 0.10424E-02 SP= 0.00E+00 SK= 0.00E+00
 bond charge predicted
 prediction of wavefunctions
       N       E                     dE             d eps       ncg     rms          rms(c)
DAV:   1    -0.332529322634E+03   -0.11517E-02   -0.10610E-04   220   0.517E-02    0.142E-03
DAV:   2    -0.332529323627E+03   -0.99292E-06   -0.11039E-05   220   0.586E-03    0.929E-04
DAV:   3    -0.332529323701E+03   -0.73484E-07   -0.10979E-06   220   0.241E-03    0.705E-04
DAV:   4    -0.332529323703E+03   -0.25166E-08   -0.19734E-07   220   0.104E-03    0.594E-04
DAV:   5    -0.332529323682E+03    0.20605E-07   -0.11544E-07   220   0.753E-04    0.130E-04
DAV:   6    -0.332529323688E+03   -0.57271E-08   -0.44546E-08   200   0.381E-04
   59 T=     0. E= -.33252714E+03 F= -.33252932E+03 E0= -.33245151E+03  EK= 0.21799E-02 SP= 0.00E+00 SK= 0.00E+00
 bond charge predicted
 prediction of wavefunctions
       N       E                     dE             d eps       ncg     rms          rms(c)
DAV:   1    -0.332531429627E+03   -0.21059E-02   -0.29170E-04   220   0.638E-02    0.225E-03
DAV:   2    -0.332531432144E+03   -0.25167E-05   -0.28467E-05   220   0.924E-03    0.146E-03
DAV:   3    -0.332531432330E+03   -0.18609E-06   -0.28720E-06   220   0.387E-03    0.110E-03
DAV:   4    -0.332531432344E+03   -0.13840E-07   -0.53717E-07   220   0.168E-03    0.962E-04
DAV:   5    -0.332531432283E+03    0.60621E-07   -0.28921E-07   220   0.117E-03    0.281E-04
DAV:   6    -0.332531432297E+03   -0.13721E-07   -0.14784E-07   220   0.657E-04
   60 T=     1. E= -.33252716E+03 F= -.33253143E+03 E0= -.33245359E+03  EK= 0.42764E-02 SP= 0.00E+00 SK= 0.00E+00
 bond charge predicted
 prediction of wavefunctions
       N       E                     dE             d eps       ncg     rms          rms(c)
DAV:   1    -0.332534351736E+03   -0.29195E-02   -0.54538E-04   200   0.758E-02    0.273E-03
DAV:   2    -0.332534355658E+03   -0.39220E-05   -0.44474E-05   220   0.115E-02    0.185E-03
DAV:   3    -0.332534355945E+03   -0.28787E-06   -0.44652E-06   220   0.484E-03    0.142E-03
DAV:   4    -0.332534355960E+03   -0.14231E-07   -0.79801E-07   220   0.210E-03    0.125E-03
DAV:   5    -0.332534355857E+03    0.10305E-06   -0.45846E-07   220   0.154E-03    0.367E-04
DAV:   6    -0.332534355882E+03   -0.25304E-07   -0.25330E-07   220   0.860E-04
   61 T=     1. E= -.33252717E+03 F= -.33253436E+03 E0= -.33245647E+03  EK= 0.71903E-02 SP= 0.00E+00 SK= 0.00E+00
 bond charge predicted
 prediction of wavefunctions
       N       E                     dE             d eps       ncg     rms          rms(c)
DAV:   1    -0.332538012132E+03   -0.36563E-02   -0.82921E-04   220   0.883E-02    0.285E-03
DAV:   2    -0.332538016489E+03   -0.43568E-05   -0.49510E-05   200   0.121E-02    0.185E-03
DAV:   3    -0.332538016909E+03   -0.42065E-06   -0.55712E-06   220   0.511E-03    0.141E-03
DAV:   4    -0.332538016961E+03   -0.52065E-07   -0.11295E-06   200   0.224E-03    0.122E-03
DAV:   5    -0.332538016892E+03    0.69658E-07   -0.55445E-07   220   0.163E-03    0.350E-04
DAV:   6    -0.332538016924E+03   -0.32293E-07   -0.27519E-07   200   0.867E-04
   62 T=     1. E= -.33252718E+03 F= -.33253802E+03 E0= -.33246008E+03  EK= 0.10834E-01 SP= 0.00E+00 SK= 0.00E+00
 bond charge predicted
 prediction of wavefunctions
       N       E                     dE             d eps       ncg     rms          rms(c)
DAV:   1    -0.332542284243E+03   -0.42674E-02   -0.11165E-03   280   0.103E-01    0.279E-03
DAV:   2    -0.332542288519E+03   -0.42755E-05   -0.47975E-05   220   0.123E-02    0.186E-03
DAV:   3    -0.332542288891E+03   -0.37190E-06   -0.50634E-06   220   0.504E-03    0.143E-03
DAV:   4    -0.332542288926E+03   -0.35314E-07   -0.94894E-07   220   0.220E-03    0.122E-03
DAV:   5    -0.332542288854E+03    0.71958E-07   -0.49863E-07   220   0.164E-03    0.326E-04
DAV:   6    -0.332542288884E+03   -0.29700E-07   -0.23257E-07   220   0.838E-04
   63 T=     2. E= -.33252721E+03 F= -.33254229E+03 E0= -.33246429E+03  EK= 0.15083E-01 SP= 0.00E+00 SK= 0.00E+00
 bond charge predicted
 prediction of wavefunctions
       N       E                     dE             d eps       ncg     rms          rms(c)
DAV:   1    -0.332546925707E+03   -0.46369E-02   -0.13876E-03   220   0.120E-01    0.313E-03
DAV:   2    -0.332546930941E+03   -0.52338E-05   -0.59206E-05   260   0.136E-02    0.215E-03
DAV:   3    -0.332546931300E+03   -0.35955E-06   -0.55410E-06   220   0.534E-03    0.166E-03
DAV:   4    -0.332546931318E+03   -0.18221E-07   -0.99198E-07   220   0.234E-03    0.136E-03
DAV:   5    -0.332546931234E+03    0.84806E-07   -0.51405E-07   220   0.170E-03    0.397E-04
DAV:   6    -0.332546931265E+03   -0.31272E-07   -0.26298E-07   220   0.915E-04
   64 T=     2. E= -.33252724E+03 F= -.33254693E+03 E0= -.33246886E+03  EK= 0.19694E-01 SP= 0.00E+00 SK= 0.00E+00
 bond charge predicted
 prediction of wavefunctions
       N       E                     dE             d eps       ncg     rms          rms(c)
DAV:   1    -0.332551588295E+03   -0.46571E-02   -0.16374E-03   200   0.136E-01    0.367E-03
DAV:   2    -0.332551596773E+03   -0.84782E-05   -0.94170E-05   240   0.164E-02    0.266E-03
DAV:   3    -0.332551597252E+03   -0.47898E-06   -0.77456E-06   220   0.622E-03    0.201E-03
DAV:   4    -0.332551597251E+03    0.16553E-08   -0.14649E-06   220   0.274E-03    0.144E-03
DAV:   5    -0.332551597190E+03    0.60615E-07   -0.68340E-07   220   0.177E-03    0.429E-04
DAV:   6    -0.332551597224E+03   -0.34184E-07   -0.27904E-07   220   0.978E-04
   65 T=     3. E= -.33252727E+03 F= -.33255160E+03 E0= -.33247343E+03  EK= 0.24329E-01 SP= 0.00E+00 SK= 0.00E+00
 bond charge predicted
 prediction of wavefunctions
       N       E                     dE             d eps       ncg     rms          rms(c)
DAV:   1    -0.332555952952E+03   -0.43558E-02   -0.18600E-03   280   0.148E-01    0.402E-03
DAV:   2    -0.332555965435E+03   -0.12483E-04   -0.13420E-04   240   0.195E-02    0.329E-03
DAV:   3    -0.332555965727E+03   -0.29197E-06   -0.74133E-06   220   0.647E-03    0.252E-03
DAV:   4    -0.332555965528E+03    0.19909E-06   -0.14662E-06   220   0.298E-03    0.148E-03
DAV:   5    -0.332555965480E+03    0.47769E-07   -0.75742E-07   220   0.178E-03    0.463E-04
DAV:   6    -0.332555965507E+03   -0.27281E-07   -0.19985E-07   180   0.957E-04
   66 T=     4. E= -.33252729E+03 F= -.33255597E+03 E0= -.33247769E+03  EK= 0.28675E-01 SP= 0.00E+00 SK= 0.00E+00
 bond charge predicted
 prediction of wavefunctions
       N       E                     dE             d eps       ncg     rms          rms(c)
DAV:   1    -0.332559860595E+03   -0.38951E-02   -0.20004E-03   220   0.156E-01    0.446E-03
DAV:   2    -0.332559874408E+03   -0.13813E-04   -0.15211E-04   260   0.207E-02    0.348E-03
DAV:   3    -0.332559874797E+03   -0.38859E-06   -0.88448E-06   220   0.702E-03    0.266E-03
DAV:   4    -0.332559874638E+03    0.15807E-06   -0.16975E-06   220   0.314E-03    0.175E-03
DAV:   5    -0.332559874529E+03    0.10931E-06   -0.93123E-07   220   0.202E-03    0.456E-04
DAV:   6    -0.332559874572E+03   -0.42859E-07   -0.30559E-07   220   0.112E-03
   67 T=     4. E= -.33252730E+03 F= -.33255987E+03 E0= -.33248147E+03  EK= 0.32573E-01 SP= 0.00E+00 SK= 0.00E+00
 bond charge predicted
 prediction of wavefunctions
       N       E                     dE             d eps       ncg     rms          rms(c)
DAV:   1    -0.332563332302E+03   -0.34578E-02   -0.20853E-03   220   0.159E-01    0.404E-03
DAV:   2    -0.332563345356E+03   -0.13054E-04   -0.14232E-04   280   0.193E-02    0.357E-03
DAV:   3    -0.332563345577E+03   -0.22041E-06   -0.76778E-06   220   0.657E-03    0.275E-03
DAV:   4    -0.332563345303E+03    0.27371E-06   -0.14895E-06   220   0.305E-03    0.165E-03
DAV:   5    -0.332563345205E+03    0.98522E-07   -0.97125E-07   220   0.200E-03    0.397E-04
DAV:   6    -0.332563345238E+03   -0.33376E-07   -0.25320E-07   220   0.109E-03
   68 T=     4. E= -.33252731E+03 F= -.33256335E+03 E0= -.33248480E+03  EK= 0.36035E-01 SP= 0.00E+00 SK= 0.00E+00
 bond charge predicted
 prediction of wavefunctions
       N       E                     dE             d eps       ncg     rms          rms(c)
DAV:   1    -0.332566440873E+03   -0.30957E-02   -0.21123E-03   200   0.163E-01    0.354E-03
DAV:   2    -0.332566449922E+03   -0.90482E-05   -0.10015E-04   280   0.155E-02    0.264E-03
DAV:   3    -0.332566450127E+03   -0.20580E-06   -0.54110E-06   220   0.534E-03    0.195E-03
DAV:   4    -0.332566449996E+03    0.13112E-06   -0.10613E-06   220   0.246E-03    0.110E-03
DAV:   5    -0.332566449963E+03    0.33382E-07   -0.51060E-07   220   0.145E-03    0.331E-04
DAV:   6    -0.332566449973E+03   -0.96697E-08   -0.12522E-07   220   0.768E-04
   69 T=     5. E= -.33252733E+03 F= -.33256645E+03 E0= -.33248775E+03  EK= 0.39121E-01 SP= 0.00E+00 SK= 0.00E+00
 bond charge predicted
 prediction of wavefunctions
       N       E                     dE             d eps       ncg     rms          rms(c)
DAV:   1    -0.332569109457E+03   -0.26595E-02   -0.21343E-03   180   0.168E-01    0.285E-03
DAV:   2    -0.332569116123E+03   -0.66664E-05   -0.72906E-05   300   0.125E-02    0.213E-03
DAV:   3    -0.332569116260E+03   -0.13751E-06   -0.38269E-06   220   0.429E-03    0.158E-03
DAV:   4    -0.332569116172E+03    0.88611E-07   -0.76998E-07   160   0.199E-03    0.891E-04
DAV:   5    -0.332569116142E+03    0.29442E-07   -0.35093E-07   160   0.118E-03    0.289E-04
DAV:   6    -0.332569116144E+03   -0.13915E-08   -0.88021E-08   160   0.628E-04
   70 T=     5. E= -.33252736E+03 F= -.33256912E+03 E0= -.33249024E+03  EK= 0.41752E-01 SP= 0.00E+00 SK= 0.00E+00
 bond charge predicted
 prediction of wavefunctions
       N       E                     dE             d eps       ncg     rms          rms(c)
DAV:   1    -0.332571023820E+03   -0.19077E-02   -0.21646E-03   180   0.176E-01    0.246E-03
DAV:   2    -0.332571029487E+03   -0.56669E-05   -0.61130E-05   260   0.115E-02    0.179E-03
DAV:   3    -0.332571029781E+03   -0.29378E-06   -0.49069E-06   200   0.452E-03    0.132E-03
DAV:   4    -0.332571029773E+03    0.79599E-08   -0.90664E-07   220   0.201E-03    0.877E-04
DAV:   5    -0.332571029733E+03    0.39938E-07   -0.35744E-07   220   0.122E-03    0.285E-04
DAV:   6    -0.332571029734E+03   -0.63301E-09   -0.13993E-07   220   0.698E-04
   71 T=     5. E= -.33252741E+03 F= -.33257103E+03 E0= -.33249198E+03  EK= 0.43620E-01 SP= 0.00E+00 SK= 0.00E+00
 bond charge predicted
 prediction of wavefunctions
       N       E                     dE             d eps       ncg     rms          rms(c)
DAV:   1    -0.332571721932E+03   -0.69220E-03   -0.22258E-03   280   0.181E-01    0.256E-03
DAV:   2    -0.332571731729E+03   -0.97966E-05   -0.10229E-04   280   0.142E-02    0.202E-03
DAV:   3    -0.332571732121E+03   -0.39205E-06   -0.63503E-06   220   0.491E-03    0.149E-03
DAV:   4    -0.332571732122E+03   -0.15543E-08   -0.13456E-06   220   0.222E-03    0.995E-04
DAV:   5    -0.332571732077E+03    0.44994E-07   -0.55203E-07   220   0.146E-03    0.317E-04
DAV:   6    -0.332571732084E+03   -0.69358E-08   -0.23812E-07   220   0.851E-04
   72 T=     6. E= -.33252745E+03 F= -.33257173E+03 E0= -.33249250E+03  EK= 0.44286E-01 SP= 0.00E+00 SK= 0.00E+00
Information: wavefunction orthogonal band  160  0.8795
 bond charge predicted
 prediction of wavefunctions
       N       E                     dE             d eps       ncg     rms          rms(c)
DAV:   1    -0.332570885011E+03    0.84707E-03   -0.22361E-03   220   0.182E-01    0.355E-03
DAV:   2    -0.332570897472E+03   -0.12461E-04   -0.13404E-04   220   0.175E-02    0.264E-03
DAV:   3    -0.332570897962E+03   -0.48927E-06   -0.92324E-06   220   0.662E-03    0.194E-03
DAV:   4    -0.332570897928E+03    0.34117E-07   -0.17396E-06   220   0.299E-03    0.128E-03
DAV:   5    -0.332570897846E+03    0.81639E-07   -0.71418E-07   220   0.183E-03    0.425E-04
DAV:   6    -0.332570897856E+03   -0.95652E-08   -0.32116E-07   220   0.108E-03
   73 T=     5. E= -.33252746E+03 F= -.33257090E+03 E0= -.33249147E+03  EK= 0.43438E-01 SP= 0.00E+00 SK= 0.00E+00
 bond charge predicted
 prediction of wavefunctions
       N       E                     dE             d eps       ncg     rms          rms(c)
DAV:   1    -0.332568534406E+03    0.23634E-02   -0.22718E-03   220   0.177E-01    0.475E-03
DAV:   2    -0.332568551317E+03   -0.16911E-04   -0.18549E-04   240   0.225E-02    0.363E-03
DAV:   3    -0.332568551841E+03   -0.52392E-06   -0.12363E-05   220   0.821E-03    0.275E-03
DAV:   4    -0.332568551679E+03    0.16225E-06   -0.21681E-06   220   0.368E-03    0.183E-03
DAV:   5    -0.332568551486E+03    0.19343E-06   -0.11260E-06   220   0.233E-03    0.518E-04
DAV:   6    -0.332568551512E+03   -0.26215E-07   -0.49265E-07   220   0.135E-03
   74 T=     5. E= -.33252745E+03 F= -.33256855E+03 E0= -.33248891E+03  EK= 0.41105E-01 SP= 0.00E+00 SK= 0.00E+00
 bond charge predicted
 prediction of wavefunctions
       N       E                     dE             d eps       ncg     rms          rms(c)
DAV:   1    -0.332565097379E+03    0.34541E-02   -0.22893E-03   260   0.166E-01    0.462E-03
DAV:   2    -0.332565114792E+03   -0.17414E-04   -0.18676E-04   300   0.230E-02    0.382E-03
DAV:   3    -0.332565115008E+03   -0.21570E-06   -0.73431E-06   220   0.639E-03    0.289E-03
DAV:   4    -0.332565114687E+03    0.32108E-06   -0.18599E-06   220   0.328E-03    0.122E-03
DAV:   5    -0.332565114717E+03   -0.29905E-07   -0.88028E-07   220   0.185E-03    0.463E-04
DAV:   6    -0.332565114732E+03   -0.15271E-07   -0.16609E-07   220   0.951E-04
   75 T=     5. E= -.33252742E+03 F= -.33256511E+03 E0= -.33248524E+03  EK= 0.37695E-01 SP= 0.00E+00 SK= 0.00E+00
 bond charge predicted
 prediction of wavefunctions
       N       E                     dE             d eps       ncg     rms          rms(c)
DAV:   1    -0.332561189259E+03    0.39255E-02   -0.22782E-03   340   0.152E-01    0.326E-03
DAV:   2    -0.332561199766E+03   -0.10508E-04   -0.11122E-04   220   0.176E-02    0.240E-03
DAV:   3    -0.332561200454E+03   -0.68764E-06   -0.86820E-06   220   0.639E-03    0.184E-03
DAV:   4    -0.332561200505E+03   -0.50994E-07   -0.17000E-06   220   0.292E-03    0.125E-03
DAV:   5    -0.332561200511E+03   -0.56298E-08   -0.65780E-07   220   0.177E-03    0.391E-04
DAV:   6    -0.332561200552E+03   -0.41377E-07   -0.25078E-07   220   0.995E-04
   76 T=     4. E= -.33252740E+03 F= -.33256120E+03 E0= -.33248105E+03  EK= 0.33801E-01 SP= 0.00E+00 SK= 0.00E+00
 bond charge predicted
 prediction of wavefunctions
       N       E                     dE             d eps       ncg     rms          rms(c)
DAV:   1    -0.332557294504E+03    0.39060E-02   -0.20903E-03   280   0.142E-01    0.216E-03
DAV:   2    -0.332557304293E+03   -0.97890E-05   -0.10245E-04   220   0.123E-02    0.186E-03
DAV:   3    -0.332557304790E+03   -0.49703E-06   -0.63246E-06   220   0.507E-03    0.144E-03
DAV:   4    -0.332557304842E+03   -0.52499E-07   -0.12684E-06   220   0.226E-03    0.114E-03
DAV:   5    -0.332557304822E+03    0.20376E-07   -0.58440E-07   220   0.156E-03    0.384E-04
DAV:   6    -0.332557304866E+03   -0.43477E-07   -0.27662E-07   220   0.929E-04
   77 T=     4. E= -.33252740E+03 F= -.33255730E+03 E0= -.33247684E+03  EK= 0.29904E-01 SP= 0.00E+00 SK= 0.00E+00
 bond charge predicted
 prediction of wavefunctions
       N       E                     dE             d eps       ncg     rms          rms(c)
DAV:   1    -0.332553580616E+03    0.37242E-02   -0.21270E-03   360   0.138E-01    0.174E-03
DAV:   2    -0.332553587565E+03   -0.69489E-05   -0.72971E-05   260   0.112E-02    0.165E-03
DAV:   3    -0.332553587931E+03   -0.36568E-06   -0.51186E-06   220   0.420E-03    0.129E-03
DAV:   4    -0.332553587990E+03   -0.59058E-07   -0.10967E-06   220   0.190E-03    0.110E-03
DAV:   5    -0.332553587948E+03    0.41534E-07   -0.44027E-07   220   0.130E-03    0.514E-04
DAV:   6    -0.332553587973E+03   -0.25025E-07   -0.29169E-07   220   0.959E-04
   78 T=     3. E= -.33252742E+03 F= -.33255359E+03 E0= -.33247276E+03  EK= 0.26166E-01 SP= 0.00E+00 SK= 0.00E+00
 bond charge predicted
 prediction of wavefunctions
       N       E                     dE             d eps       ncg     rms          rms(c)
DAV:   1    -0.332549885598E+03    0.37024E-02   -0.17515E-03   280   0.137E-01    0.208E-03
DAV:   2    -0.332549891456E+03   -0.58577E-05   -0.64506E-05   220   0.108E-02    0.192E-03
DAV:   3    -0.332549891624E+03   -0.16865E-06   -0.40693E-06   220   0.410E-03    0.147E-03
DAV:   4    -0.332549891653E+03   -0.29206E-07   -0.87535E-07   220   0.183E-03    0.133E-03
DAV:   5    -0.332549891546E+03    0.10736E-06   -0.41041E-07   220   0.127E-03    0.721E-04
DAV:   6    -0.332549891548E+03   -0.19791E-08   -0.47954E-07   220   0.120E-03
   79 T=     3. E= -.33252745E+03 F= -.33254989E+03 E0= -.33246862E+03  EK= 0.22444E-01 SP= 0.00E+00 SK= 0.00E+00
 bond charge predicted
 prediction of wavefunctions
       N       E                     dE             d eps       ncg     rms          rms(c)
DAV:   1    -0.332545963791E+03    0.39278E-02   -0.14252E-03   220   0.133E-01    0.284E-03
DAV:   2    -0.332545969575E+03   -0.57841E-05   -0.69010E-05   200   0.121E-02    0.238E-03
DAV:   3    -0.332545969750E+03   -0.17437E-06   -0.55306E-06   220   0.526E-03    0.185E-03
DAV:   4    -0.332545969776E+03   -0.26393E-07   -0.10595E-06   220   0.232E-03    0.175E-03
DAV:   5    -0.332545969585E+03    0.19103E-06   -0.44686E-07   220   0.145E-03    0.108E-03
DAV:   6    -0.332545969551E+03    0.34496E-07   -0.87154E-07   220   0.166E-03
   80 T=     2. E= -.33252746E+03 F= -.33254597E+03 E0= -.33246419E+03  EK= 0.18510E-01 SP= 0.00E+00 SK= 0.00E+00
 bond charge predicted
 prediction of wavefunctions
       N       E                     dE             d eps       ncg     rms          rms(c)
DAV:   1    -0.332541751514E+03    0.42181E-02   -0.11575E-03   220   0.124E-01    0.358E-03
DAV:   2    -0.332541760648E+03   -0.91338E-05   -0.10793E-04   220   0.152E-02    0.285E-03
DAV:   3    -0.332541760972E+03   -0.32410E-06   -0.81106E-06   220   0.644E-03    0.222E-03
DAV:   4    -0.332541760989E+03   -0.16369E-07   -0.15297E-06   220   0.284E-03    0.199E-03
DAV:   5    -0.332541760728E+03    0.26038E-06   -0.81836E-07   220   0.193E-03    0.931E-04
DAV:   6    -0.332541760753E+03   -0.24875E-07   -0.77799E-07   220   0.153E-03
   81 T=     2. E= -.33252745E+03 F= -.33254176E+03 E0= -.33245942E+03  EK= 0.14312E-01 SP= 0.00E+00 SK= 0.00E+00
 bond charge predicted
 prediction of wavefunctions
       N       E                     dE             d eps       ncg     rms          rms(c)
DAV:   1    -0.332537508566E+03    0.42522E-02   -0.89419E-04   200   0.109E-01    0.378E-03
DAV:   2    -0.332537520573E+03   -0.12008E-04   -0.13437E-04   260   0.178E-02    0.348E-03
DAV:   3    -0.332537520660E+03   -0.86764E-07   -0.72225E-06   220   0.633E-03    0.269E-03
DAV:   4    -0.332537520430E+03    0.23069E-06   -0.13268E-06   220   0.285E-03    0.189E-03
DAV:   5    -0.332537520235E+03    0.19422E-06   -0.95815E-07   220   0.204E-03    0.531E-04
DAV:   6    -0.332537520290E+03   -0.54257E-07   -0.41127E-07   220   0.123E-03
   82 T=     1. E= -.33252742E+03 F= -.33253752E+03 E0= -.33245460E+03  EK= 0.10097E-01 SP= 0.00E+00 SK= 0.00E+00
 bond charge predicted
 prediction of wavefunctions
       N       E                     dE             d eps       ncg     rms          rms(c)
DAV:   1    -0.332533715204E+03    0.38050E-02   -0.62357E-04   220   0.886E-02    0.343E-03
DAV:   2    -0.332533722999E+03   -0.77953E-05   -0.85221E-05   200   0.164E-02    0.248E-03
DAV:   3    -0.332533723666E+03   -0.66652E-06   -0.85868E-06   220   0.688E-03    0.201E-03
DAV:   4    -0.332533723714E+03   -0.48568E-07   -0.16609E-06   220   0.305E-03    0.168E-03
DAV:   5    -0.332533723598E+03    0.11623E-06   -0.78761E-07   220   0.202E-03    0.510E-04
DAV:   6    -0.332533723652E+03   -0.54194E-07   -0.36344E-07   220   0.108E-03
   83 T=     1. E= -.33252740E+03 F= -.33253372E+03 E0= -.33245026E+03  EK= 0.63250E-02 SP= 0.00E+00 SK= 0.00E+00
 bond charge predicted
 prediction of wavefunctions
       N       E                     dE             d eps       ncg     rms          rms(c)
DAV:   1    -0.332530816769E+03    0.29068E-02   -0.37113E-04   220   0.687E-02    0.295E-03
DAV:   2    -0.332530821629E+03   -0.48599E-05   -0.53586E-05   200   0.129E-02    0.204E-03
DAV:   3    -0.332530822142E+03   -0.51318E-06   -0.60441E-06   220   0.550E-03    0.156E-03
DAV:   4    -0.332530822224E+03   -0.81979E-07   -0.11960E-06   220   0.245E-03    0.133E-03
DAV:   5    -0.332530822203E+03    0.21622E-07   -0.59840E-07   220   0.182E-03    0.290E-04
DAV:   6    -0.332530822240E+03   -0.36926E-07   -0.23588E-07   200   0.885E-04
   84 T=     0. E= -.33252739E+03 F= -.33253082E+03 E0= -.33244691E+03  EK= 0.34349E-02 SP= 0.00E+00 SK= 0.00E+00
 bond charge predicted
 prediction of wavefunctions
       N       E                     dE             d eps       ncg     rms          rms(c)
DAV:   1    -0.332529041884E+03    0.17803E-02   -0.18371E-04   200   0.556E-02    0.232E-03
DAV:   2    -0.332529044853E+03   -0.29691E-05   -0.33508E-05   240   0.928E-03    0.137E-03
DAV:   3    -0.332529045059E+03   -0.20646E-06   -0.29359E-06   220   0.373E-03    0.100E-03
DAV:   4    -0.332529045100E+03   -0.40507E-07   -0.58722E-07   220   0.168E-03    0.845E-04
DAV:   5    -0.332529045086E+03    0.13946E-07   -0.25009E-07   220   0.111E-03    0.277E-04
DAV:   6    -0.332529045101E+03   -0.15579E-07   -0.12330E-07   220   0.639E-04
   85 T=     0. E= -.33252739E+03 F= -.33252905E+03 E0= -.33244485E+03  EK= 0.16542E-02 SP= 0.00E+00 SK= 0.00E+00
 bond charge predicted
 prediction of wavefunctions
       N       E                     dE             d eps       ncg     rms          rms(c)
DAV:   1    -0.332528376519E+03    0.66857E-03   -0.66214E-05   220   0.513E-02    0.148E-03
DAV:   2    -0.332528377801E+03   -0.12818E-05   -0.13926E-05   200   0.618E-03    0.104E-03
DAV:   3    -0.332528377922E+03   -0.12163E-06   -0.15619E-06   220   0.271E-03    0.807E-04
DAV:   4    -0.332528377947E+03   -0.24925E-07   -0.31817E-07   220   0.122E-03    0.782E-04
DAV:   5    -0.332528377927E+03    0.20048E-07   -0.12054E-07   220   0.807E-04    0.422E-04
DAV:   6    -0.332528377958E+03   -0.30706E-07   -0.19666E-07   220   0.815E-04
   86 T=     0. E= -.33252740E+03 F= -.33252838E+03 E0= -.33244408E+03  EK= 0.97832E-03 SP= 0.00E+00 SK= 0.00E+00
 bond charge predicted
 prediction of wavefunctions
       N       E                     dE             d eps       ncg     rms          rms(c)
DAV:   1    -0.332528702684E+03   -0.32476E-03   -0.27177E-05   220   0.528E-02    0.134E-03
DAV:   2    -0.332528703315E+03   -0.63153E-06   -0.84632E-06   180   0.453E-03    0.673E-04
DAV:   3    -0.332528703422E+03   -0.10642E-06   -0.10534E-06   220   0.210E-03    0.504E-04
DAV:   4    -0.332528703440E+03   -0.18174E-07   -0.22192E-07   220   0.970E-04    0.418E-04
DAV:   5    -0.332528703442E+03   -0.25493E-08   -0.87203E-08   220   0.652E-04    0.128E-04
DAV:   6    -0.332528703451E+03   -0.87266E-08   -0.44415E-08   220   0.361E-04
   87 T=     0. E= -.33252740E+03 F= -.33252870E+03 E0= -.33244449E+03  EK= 0.13000E-02 SP= 0.00E+00 SK= 0.00E+00
 bond charge predicted
 prediction of wavefunctions
       N       E                     dE             d eps       ncg     rms          rms(c)
DAV:   1    -0.332529955877E+03   -0.12524E-02   -0.76734E-05   200   0.588E-02    0.113E-03
DAV:   2    -0.332529956608E+03   -0.73068E-06   -0.85176E-06   200   0.446E-03    0.840E-04
DAV:   3    -0.332529956676E+03   -0.68300E-07   -0.10507E-06   220   0.209E-03    0.634E-04
DAV:   4    -0.332529956668E+03    0.77835E-08   -0.20384E-07   220   0.959E-04    0.470E-04
DAV:   5    -0.332529956647E+03    0.21949E-07   -0.84646E-08   220   0.650E-04    0.155E-04
DAV:   6    -0.332529956648E+03   -0.17289E-08   -0.53046E-08   220   0.401E-04
   88 T=     0. E= -.33252740E+03 F= -.33252996E+03 E0= -.33244600E+03  EK= 0.25562E-02 SP= 0.00E+00 SK= 0.00E+00
 bond charge predicted
 prediction of wavefunctions
       N       E                     dE             d eps       ncg     rms          rms(c)
DAV:   1    -0.332532155638E+03   -0.21990E-02   -0.22601E-04   220   0.657E-02    0.142E-03
DAV:   2    -0.332532157171E+03   -0.15330E-05   -0.17575E-05   180   0.659E-03    0.122E-03
DAV:   3    -0.332532157314E+03   -0.14290E-06   -0.23155E-06   220   0.303E-03    0.935E-04
DAV:   4    -0.332532157330E+03   -0.15794E-07   -0.49996E-07   220   0.134E-03    0.862E-04
DAV:   5    -0.332532157273E+03    0.56672E-07   -0.18227E-07   220   0.885E-04    0.451E-04
DAV:   6    -0.332532157258E+03    0.15399E-07   -0.21337E-07   220   0.839E-04
   89 T=     1. E= -.33252740E+03 F= -.33253216E+03 E0= -.33244860E+03  EK= 0.47594E-02 SP= 0.00E+00 SK= 0.00E+00
 bond charge predicted
 prediction of wavefunctions
       N       E                     dE             d eps       ncg     rms          rms(c)
DAV:   1    -0.332535298651E+03   -0.31414E-02   -0.46918E-04   220   0.754E-02    0.227E-03
DAV:   2    -0.332535300987E+03   -0.23358E-05   -0.29645E-05   220   0.916E-03    0.145E-03
DAV:   3    -0.332535301195E+03   -0.20850E-06   -0.34297E-06   220   0.399E-03    0.106E-03
DAV:   4    -0.332535301208E+03   -0.12507E-07   -0.66830E-07   220   0.180E-03    0.934E-04
DAV:   5    -0.332535301140E+03    0.68267E-07   -0.22494E-07   220   0.111E-03    0.436E-04
DAV:   6    -0.332535301131E+03    0.89267E-08   -0.20123E-07   220   0.833E-04
   90 T=     1. E= -.33252741E+03 F= -.33253530E+03 E0= -.33245223E+03  EK= 0.78961E-02 SP= 0.00E+00 SK= 0.00E+00
 bond charge predicted
 prediction of wavefunctions
       N       E                     dE             d eps       ncg     rms          rms(c)
DAV:   1    -0.332539219298E+03   -0.39182E-02   -0.77343E-04   220   0.890E-02    0.276E-03
DAV:   2    -0.332539222895E+03   -0.35967E-05   -0.44639E-05   180   0.112E-02    0.182E-03
DAV:   3    -0.332539223208E+03   -0.31272E-06   -0.52713E-06   220   0.500E-03    0.138E-03
DAV:   4    -0.332539223246E+03   -0.38331E-07   -0.10579E-06   220   0.222E-03    0.129E-03
DAV:   5    -0.332539223125E+03    0.12103E-06   -0.36896E-07   220   0.139E-03    0.676E-04
DAV:   6    -0.332539223112E+03    0.13248E-07   -0.49683E-07   220   0.130E-03
   91 T=     1. E= -.33252742E+03 F= -.33253922E+03 E0= -.33245668E+03  EK= 0.11799E-01 SP= 0.00E+00 SK= 0.00E+00
 bond charge predicted
 prediction of wavefunctions
       N       E                     dE             d eps       ncg     rms          rms(c)
DAV:   1    -0.332543560824E+03   -0.43377E-02   -0.11099E-03   200   0.105E-01    0.361E-03
DAV:   2    -0.332543568921E+03   -0.80965E-05   -0.96086E-05   240   0.151E-02    0.255E-03
DAV:   3    -0.332543569283E+03   -0.36273E-06   -0.77654E-06   220   0.615E-03    0.191E-03
DAV:   4    -0.332543569308E+03   -0.24961E-07   -0.14592E-06   220   0.274E-03    0.167E-03
DAV:   5    -0.332543569103E+03    0.20592E-06   -0.72229E-07   220   0.187E-03    0.673E-04
DAV:   6    -0.332543569117E+03   -0.14410E-07   -0.56472E-07   220   0.132E-03
   92 T=     2. E= -.33252745E+03 F= -.33254357E+03 E0= -.33246156E+03  EK= 0.16124E-01 SP= 0.00E+00 SK= 0.00E+00
 bond charge predicted
 prediction of wavefunctions
       N       E                     dE             d eps       ncg     rms          rms(c)
DAV:   1    -0.332547912559E+03   -0.43435E-02   -0.14321E-03   220   0.119E-01    0.409E-03
DAV:   2    -0.332547925418E+03   -0.12858E-04   -0.14589E-04   260   0.188E-02    0.364E-03
DAV:   3    -0.332547925531E+03   -0.11291E-06   -0.88631E-06   220   0.678E-03    0.276E-03
DAV:   4    -0.332547925430E+03    0.10056E-06   -0.15967E-06   220   0.294E-03    0.232E-03
DAV:   5    -0.332547925025E+03    0.40540E-06   -0.12668E-06   220   0.233E-03    0.764E-04
DAV:   6    -0.332547925054E+03   -0.29008E-07   -0.81083E-07   220   0.156E-03
   93 T=     3. E= -.33252746E+03 F= -.33254793E+03 E0= -.33246643E+03  EK= 0.20469E-01 SP= 0.00E+00 SK= 0.00E+00
 bond charge predicted
 prediction of wavefunctions
       N       E                     dE             d eps       ncg     rms          rms(c)
DAV:   1    -0.332552001088E+03   -0.40761E-02   -0.17147E-03   220   0.129E-01    0.444E-03
DAV:   2    -0.332552017603E+03   -0.16515E-04   -0.18395E-04   260   0.220E-02    0.413E-03
[...]
DAV:   2    -0.332539317691E+03   -0.51089E-05   -0.57312E-05   200   0.134E-02    0.199E-03
DAV:   3    -0.332539318147E+03   -0.45621E-06   -0.60363E-06   220   0.551E-03    0.152E-03
DAV:   4    -0.332539318206E+03   -0.58584E-07   -0.11790E-06   220   0.241E-03    0.123E-03
DAV:   5    -0.332539318155E+03    0.50499E-07   -0.50418E-07   220   0.159E-03    0.358E-04
DAV:   6    -0.332539318188E+03   -0.32278E-07   -0.22555E-07   220   0.849E-04
 1320 T=     2. E= -.33252726E+03 F= -.33253932E+03 E0= -.33246135E+03  EK= 0.12063E-01 SP= 0.00E+00 SK= 0.00E+00
 bond charge predicted
 prediction of wavefunctions
       N       E                     dE             d eps       ncg     rms          rms(c)
DAV:   1    -0.332543733427E+03   -0.44153E-02   -0.10762E-03   220   0.120E-01    0.412E-03
DAV:   2    -0.332543743183E+03   -0.97561E-05   -0.10838E-04   220   0.184E-02    0.280E-03
DAV:   3    -0.332543743941E+03   -0.75817E-06   -0.10542E-05   220   0.751E-03    0.221E-03
DAV:   4    -0.332543744011E+03   -0.70521E-07   -0.19823E-06   220   0.329E-03    0.185E-03
DAV:   5    -0.332543743855E+03    0.15636E-06   -0.95212E-07   220   0.224E-03    0.543E-04
DAV:   6    -0.332543743913E+03   -0.57606E-07   -0.42522E-07   220   0.119E-03
 1321 T=     2. E= -.33252728E+03 F= -.33254374E+03 E0= -.33246570E+03  EK= 0.16461E-01 SP= 0.00E+00 SK= 0.00E+00
 bond charge predicted
 prediction of wavefunctions
       N       E                     dE             d eps       ncg     rms          rms(c)
DAV:   1    -0.332548035895E+03   -0.42920E-02   -0.13810E-03   220   0.131E-01    0.454E-03
DAV:   2    -0.332548049582E+03   -0.13687E-04   -0.15115E-04   240   0.211E-02    0.341E-03
DAV:   3    -0.332548050322E+03   -0.74015E-06   -0.11672E-05   220   0.791E-03    0.270E-03
DAV:   4    -0.332548050310E+03    0.12233E-07   -0.22117E-06   220   0.346E-03    0.219E-03
DAV:   5    -0.332548050084E+03    0.22604E-06   -0.13703E-06   220   0.258E-03    0.525E-04
DAV:   6    -0.332548050153E+03   -0.68730E-07   -0.48787E-07   220   0.132E-03
 1322 T=     3. E= -.33252729E+03 F= -.33254805E+03 E0= -.33246993E+03  EK= 0.20757E-01 SP= 0.00E+00 SK= 0.00E+00
 bond charge predicted
 prediction of wavefunctions
       N       E                     dE             d eps       ncg     rms          rms(c)
DAV:   1    -0.332552202038E+03   -0.41520E-02   -0.16193E-03   200   0.136E-01    0.381E-03
DAV:   2    -0.332552211775E+03   -0.97374E-05   -0.10783E-04   240   0.177E-02    0.289E-03
DAV:   3    -0.332552212449E+03   -0.67323E-06   -0.10132E-05   220   0.731E-03    0.229E-03
DAV:   4    -0.332552212456E+03   -0.78589E-08   -0.18933E-06   180   0.323E-03    0.184E-03
DAV:   5    -0.332552212272E+03    0.18423E-06   -0.11336E-06   160   0.238E-03    0.423E-04
DAV:   6    -0.332552212324E+03   -0.52165E-07   -0.43495E-07   160   0.120E-03
 1323 T=     3. E= -.33252729E+03 F= -.33255221E+03 E0= -.33247400E+03  EK= 0.24917E-01 SP= 0.00E+00 SK= 0.00E+00
 bond charge predicted
 prediction of wavefunctions
       N       E                     dE             d eps       ncg     rms          rms(c)
DAV:   1    -0.332556362626E+03   -0.41504E-02   -0.18225E-03   220   0.138E-01    0.296E-03
DAV:   2    -0.332556368227E+03   -0.56009E-05   -0.63215E-05   240   0.131E-02    0.214E-03
DAV:   3    -0.332556368553E+03   -0.32621E-06   -0.51619E-06   220   0.507E-03    0.162E-03
DAV:   4    -0.332556368539E+03    0.14463E-07   -0.96108E-07   220   0.227E-03    0.113E-03
DAV:   5    -0.332556368490E+03    0.48968E-07   -0.49925E-07   220   0.152E-03    0.282E-04
DAV:   6    -0.332556368509E+03   -0.19107E-07   -0.17839E-07   200   0.813E-04
 1324 T=     4. E= -.33252730E+03 F= -.33255637E+03 E0= -.33247805E+03  EK= 0.29066E-01 SP= 0.00E+00 SK= 0.00E+00
 bond charge predicted
 prediction of wavefunctions
       N       E                     dE             d eps       ncg     rms          rms(c)
DAV:   1    -0.332560566034E+03   -0.41975E-02   -0.20067E-03   220   0.143E-01    0.246E-03
DAV:   2    -0.332560569138E+03   -0.31041E-05   -0.36066E-05   220   0.104E-02    0.150E-03
DAV:   3    -0.332560569425E+03   -0.28636E-06   -0.41125E-06   220   0.444E-03    0.118E-03
DAV:   4    -0.332560569454E+03   -0.29565E-07   -0.84064E-07   220   0.197E-03    0.102E-03
DAV:   5    -0.332560569383E+03    0.71055E-07   -0.41057E-07   220   0.145E-03    0.310E-04
DAV:   6    -0.332560569399E+03   -0.15817E-07   -0.22313E-07   220   0.799E-04
 1325 T=     4. E= -.33252733E+03 F= -.33256057E+03 E0= -.33248213E+03  EK= 0.33240E-01 SP= 0.00E+00 SK= 0.00E+00
 bond charge predicted
 prediction of wavefunctions
       N       E                     dE             d eps       ncg     rms          rms(c)
DAV:   1    -0.332564595144E+03   -0.40258E-02   -0.21537E-03   200   0.153E-01    0.273E-03
DAV:   2    -0.332564598456E+03   -0.33119E-05   -0.41467E-05   220   0.111E-02    0.178E-03
DAV:   3    -0.332564598778E+03   -0.32230E-06   -0.47953E-06   220   0.485E-03    0.133E-03
DAV:   4    -0.332564598793E+03   -0.15138E-07   -0.86842E-07   220   0.212E-03    0.107E-03
DAV:   5    -0.332564598722E+03    0.70875E-07   -0.38163E-07   220   0.141E-03    0.366E-04
DAV:   6    -0.332564598731E+03   -0.93105E-08   -0.22777E-07   220   0.832E-04
 1326 T=     5. E= -.33252737E+03 F= -.33256460E+03 E0= -.33248603E+03  EK= 0.37227E-01 SP= 0.00E+00 SK= 0.00E+00
 bond charge predicted
 prediction of wavefunctions
       N       E                     dE             d eps       ncg     rms          rms(c)
DAV:   1    -0.332567997696E+03   -0.33990E-02   -0.22618E-03   200   0.165E-01    0.304E-03
DAV:   2    -0.332568003068E+03   -0.53715E-05   -0.62394E-05   220   0.136E-02    0.226E-03
DAV:   3    -0.332568003434E+03   -0.36681E-06   -0.66361E-06   220   0.582E-03    0.176E-03
DAV:   4    -0.332568003435E+03   -0.18099E-09   -0.11727E-06   220   0.253E-03    0.160E-03
DAV:   5    -0.332568003228E+03    0.20653E-06   -0.58366E-07   220   0.180E-03    0.700E-04
DAV:   6    -0.332568003234E+03   -0.60973E-08   -0.62811E-07   220   0.137E-03
 1327 T=     5. E= -.33252742E+03 F= -.33256800E+03 E0= -.33248929E+03  EK= 0.40586E-01 SP= 0.00E+00 SK= 0.00E+00
 bond charge predicted
 prediction of wavefunctions
       N       E                     dE             d eps       ncg     rms          rms(c)
DAV:   1    -0.332570300198E+03   -0.22970E-02   -0.23205E-03   200   0.174E-01    0.432E-03
DAV:   2    -0.332570308893E+03   -0.86950E-05   -0.10668E-04   220   0.180E-02    0.289E-03
DAV:   3    -0.332570309574E+03   -0.68139E-06   -0.11076E-05   220   0.760E-03    0.218E-03
DAV:   4    -0.332570309566E+03    0.82482E-08   -0.18287E-06   220   0.330E-03    0.175E-03
DAV:   5    -0.332570309361E+03    0.20479E-06   -0.76986E-07   220   0.208E-03    0.672E-04
DAV:   6    -0.332570309376E+03   -0.15052E-07   -0.59234E-07   220   0.137E-03
 1328 T=     5. E= -.33252745E+03 F= -.33257031E+03 E0= -.33249144E+03  EK= 0.42860E-01 SP= 0.00E+00 SK= 0.00E+00
 bond charge predicted
 prediction of wavefunctions
       N       E                     dE             d eps       ncg     rms          rms(c)
DAV:   1    -0.332571251346E+03   -0.94199E-03   -0.23605E-03   220   0.179E-01    0.473E-03
DAV:   2    -0.332571266845E+03   -0.15499E-04   -0.17277E-04   240   0.223E-02    0.397E-03
DAV:   3    -0.332571267359E+03   -0.51348E-06   -0.13788E-05   220   0.859E-03    0.314E-03
DAV:   4    -0.332571267190E+03    0.16872E-06   -0.23283E-06   220   0.366E-03    0.264E-03
DAV:   5    -0.332571266634E+03    0.55581E-06   -0.18069E-06   220   0.291E-03    0.807E-04
DAV:   6    -0.332571266681E+03   -0.46542E-07   -0.10228E-06   220   0.175E-03
 1329 T=     5. E= -.33252746E+03 F= -.33257127E+03 E0= -.33249223E+03  EK= 0.43805E-01 SP= 0.00E+00 SK= 0.00E+00
 bond charge predicted
 prediction of wavefunctions
       N       E                     dE             d eps       ncg     rms          rms(c)
DAV:   1    -0.332570917819E+03    0.34882E-03   -0.23507E-03   220   0.179E-01    0.481E-03
DAV:   2    -0.332570933525E+03   -0.15706E-04   -0.17364E-04   260   0.221E-02    0.407E-03
DAV:   3    -0.332570934047E+03   -0.52215E-06   -0.12420E-05   220   0.824E-03    0.318E-03
DAV:   4    -0.332570933800E+03    0.24693E-06   -0.21941E-06   220   0.364E-03    0.221E-03
DAV:   5    -0.332570933535E+03    0.26524E-06   -0.14844E-06   220   0.258E-03    0.489E-04
DAV:   6    -0.332570933583E+03   -0.48484E-07   -0.56131E-07   220   0.143E-03
 1330 T=     5. E= -.33252746E+03 F= -.33257093E+03 E0= -.33249172E+03  EK= 0.43476E-01 SP= 0.00E+00 SK= 0.00E+00
 bond charge predicted
 prediction of wavefunctions
       N       E                     dE             d eps       ncg     rms          rms(c)
DAV:   1    -0.332569571060E+03    0.13625E-02   -0.23190E-03   220   0.175E-01    0.413E-03
DAV:   2    -0.332569584419E+03   -0.13359E-04   -0.14632E-04   300   0.185E-02    0.308E-03
DAV:   3    -0.332569584817E+03   -0.39780E-06   -0.77992E-06   220   0.639E-03    0.230E-03
DAV:   4    -0.332569584696E+03    0.12031E-06   -0.16675E-06   220   0.305E-03    0.121E-03
DAV:   5    -0.332569584716E+03   -0.19512E-07   -0.72107E-07   220   0.174E-03    0.431E-04
DAV:   6    -0.332569584742E+03   -0.25720E-07   -0.17272E-07   220   0.912E-04
 1331 T=     5. E= -.33252746E+03 F= -.33256958E+03 E0= -.33249017E+03  EK= 0.42129E-01 SP= 0.00E+00 SK= 0.00E+00
 bond charge predicted
 prediction of wavefunctions
       N       E                     dE             d eps       ncg     rms          rms(c)
DAV:   1    -0.332567468716E+03    0.21160E-02   -0.24136E-03   340   0.171E-01    0.321E-03
DAV:   2    -0.332567480497E+03   -0.11782E-04   -0.12441E-04   320   0.162E-02    0.227E-03
DAV:   3    -0.332567480636E+03   -0.13921E-06   -0.33620E-06   220   0.409E-03    0.165E-03
DAV:   4    -0.332567480567E+03    0.69716E-07   -0.13983E-06   220   0.252E-03    0.355E-04
DAV:   5    -0.332567480617E+03   -0.50009E-07   -0.43026E-07   220   0.131E-03    0.314E-04
DAV:   6    -0.332567480624E+03   -0.73242E-08   -0.87756E-08   220   0.613E-04
 1332 T=     5. E= -.33252746E+03 F= -.33256748E+03 E0= -.33248784E+03  EK= 0.40019E-01 SP= 0.00E+00 SK= 0.00E+00
Information: wavefunction orthogonal band  160  0.8085
 bond charge predicted
 prediction of wavefunctions
       N       E                     dE             d eps       ncg     rms          rms(c)
DAV:   1    -0.332564731181E+03    0.27494E-02   -0.23098E-03   240   0.168E-01    0.295E-03
DAV:   2    -0.332564738840E+03   -0.76587E-05   -0.83685E-05   300   0.139E-02    0.238E-03
DAV:   3    -0.332564739034E+03   -0.19437E-06   -0.46901E-06   220   0.470E-03    0.183E-03
DAV:   4    -0.332564738929E+03    0.10487E-06   -0.10503E-06   220   0.231E-03    0.104E-03
DAV:   5    -0.332564738913E+03    0.16093E-07   -0.50401E-07   220   0.143E-03    0.322E-04
DAV:   6    -0.332564738940E+03   -0.26906E-07   -0.14567E-07   220   0.783E-04
 1333 T=     5. E= -.33252748E+03 F= -.33256474E+03 E0= -.33248483E+03  EK= 0.37263E-01 SP= 0.00E+00 SK= 0.00E+00
 bond charge predicted
 prediction of wavefunctions
       N       E                     dE             d eps       ncg     rms          rms(c)
DAV:   1    -0.332561343201E+03    0.33957E-02   -0.22416E-03   280   0.164E-01    0.322E-03
DAV:   2    -0.332561351920E+03   -0.87188E-05   -0.97127E-05   260   0.157E-02    0.246E-03
DAV:   3    -0.332561352415E+03   -0.49482E-06   -0.78508E-06   220   0.601E-03    0.183E-03
DAV:   4    -0.332561352419E+03   -0.38581E-08   -0.14675E-06   220   0.271E-03    0.136E-03
DAV:   5    -0.332561352333E+03    0.85799E-07   -0.83861E-07   220   0.193E-03    0.304E-04
DAV:   6    -0.332561352372E+03   -0.38784E-07   -0.28461E-07   220   0.104E-03
 1334 T=     4. E= -.33252749E+03 F= -.33256135E+03 E0= -.33248113E+03  EK= 0.33864E-01 SP= 0.00E+00 SK= 0.00E+00
 bond charge predicted
 prediction of wavefunctions
       N       E                     dE             d eps       ncg     rms          rms(c)
DAV:   1    -0.332557330377E+03    0.40220E-02   -0.20780E-03   200   0.157E-01    0.394E-03
DAV:   2    -0.332557340065E+03   -0.96878E-05   -0.11307E-04   220   0.177E-02    0.302E-03
DAV:   3    -0.332557340789E+03   -0.72386E-06   -0.11809E-05   220   0.784E-03    0.241E-03
DAV:   4    -0.332557340821E+03   -0.32796E-07   -0.21985E-06   220   0.348E-03    0.219E-03
DAV:   5    -0.332557340458E+03    0.36354E-06   -0.11526E-06   220   0.246E-03    0.854E-04
DAV:   6    -0.332557340529E+03   -0.70657E-07   -0.10373E-06   220   0.174E-03
 1335 T=     4. E= -.33252749E+03 F= -.33255734E+03 E0= -.33247674E+03  EK= 0.29853E-01 SP= 0.00E+00 SK= 0.00E+00
 bond charge predicted
 prediction of wavefunctions
       N       E                     dE             d eps       ncg     rms          rms(c)
DAV:   1    -0.332552872412E+03    0.44680E-02   -0.19171E-03   200   0.146E-01    0.506E-03
DAV:   2    -0.332552885329E+03   -0.12917E-04   -0.15857E-04   240   0.208E-02    0.330E-03
DAV:   3    -0.332552886185E+03   -0.85567E-06   -0.13349E-05   220   0.827E-03    0.252E-03
DAV:   4    -0.332552886175E+03    0.91914E-08   -0.24301E-06   220   0.365E-03    0.196E-03
srun: Job step aborted: Waiting up to 32 seconds for job step to finish.
slurmstepd: error: *** JOB 4037 ON mngnode CANCELLED AT 2018-11-30T21:01:11 DUE TO TIME LIMIT ***
slurmstepd: error: *** STEP 4037.0 ON mngnode CANCELLED AT 2018-11-30T21:01:11 DUE TO TIME LIMIT ***
srun: got SIGCONT
srun: forcing job termination
forrtl: error (78): process killed (SIGTERM)
Image              PC                Routine            Line        Source             
vasp_std           000000000138501E  Unknown               Unknown  Unknown
libpthread-2.17.s  00002B5E223256D0  Unknown               Unknown  Unknown

Stack trace terminated abnormally.
forrtl: error (78): process killed (SIGTERM)
Image              PC                Routine            Line        Source             
vasp_std           000000000138501E  Unknown               Unknown  Unknown
libpthread-2.17.s  00002AFE0372C6D0  Unknown               Unknown  Unknown

Stack trace terminated abnormally.
forrtl: error (78): process killed (SIGTERM)
Image              PC                Routine            Line        Source             
vasp_std           000000000138501E  Unknown               Unknown  Unknown
libpthread-2.17.s  00002AE4225046D0  Unknown               Unknown  Unknown

Stack trace terminated abnormally.
forrtl: error (78): process killed (SIGTERM)
Image              PC                Routine            Line        Source             
vasp_std           000000000138501E  Unknown               Unknown  Unknown
libpthread-2.17.s  00002B3469FFA6D0  Unknown               Unknown  Unknown

Stack trace terminated abnormally.
forrtl: error (78): process killed (SIGTERM)
Image              PC                Routine            Line        Source             
vasp_std           000000000138501E  Unknown               Unknown  Unknown
libpthread-2.17.s  00002AFF78BEB6D0  Unknown               Unknown  Unknown

Stack trace terminated abnormally.
forrtl: error (78): process killed (SIGTERM)
Image              PC                Routine            Line        Source             
vasp_std           000000000138501E  Unknown               Unknown  Unknown
libpthread-2.17.s  00002B863F0236D0  Unknown               Unknown  Unknown

Stack trace terminated abnormally.
forrtl: error (78): process killed (SIGTERM)
Image              PC                Routine            Line        Source             
vasp_std           000000000138501E  Unknown               Unknown  Unknown
libpthread-2.17.s  00002B82C08A86D0  Unknown               Unknown  Unknown

Stack trace terminated abnormally.
forrtl: error (78): process killed (SIGTERM)
Image              PC                Routine            Line        Source             
vasp_std           000000000138501E  Unknown               Unknown  Unknown
libpthread-2.17.s  00002B2BD2B946D0  Unknown               Unknown  Unknown

Stack trace terminated abnormally.
forrtl: error (78): process killed (SIGTERM)
Image              PC                Routine            Line        Source             
vasp_std           000000000138501E  Unknown               Unknown  Unknown
libpthread-2.17.s  00002AEBA1E736D0  Unknown               Unknown  Unknown

Stack trace terminated abnormally.
forrtl: error (78): process killed (SIGTERM)
Image              PC                Routine            Line        Source             
vasp_std           000000000138501E  Unknown               Unknown  Unknown
libpthread-2.17.s  00002B0D57DF66D0  Unknown               Unknown  Unknown

Stack trace terminated abnormally.
forrtl: error (78): process killed (SIGTERM)
Image              PC                Routine            Line        Source             
vasp_std           000000000138501E  Unknown               Unknown  Unknown
libpthread-2.17.s  00002AF68E06F6D0  Unknown               Unknown  Unknown

Stack trace terminated abnormally.
forrtl: error (78): process killed (SIGTERM)
Image              PC                Routine            Line        Source             
vasp_std           000000000138501E  Unknown               Unknown  Unknown
libpthread-2.17.s  00002B69D92836D0  Unknown               Unknown  Unknown

Stack trace terminated abnormally.
forrtl: error (78): process killed (SIGTERM)
Image              PC                Routine            Line        Source             
vasp_std           000000000138501E  Unknown               Unknown  Unknown
libpthread-2.17.s  00002B8909ECC6D0  Unknown               Unknown  Unknown

Stack trace terminated abnormally.
forrtl: error (78): process killed (SIGTERM)
Image              PC                Routine            Line        Source             
vasp_std           000000000138501E  Unknown               Unknown  Unknown
libpthread-2.17.s  00002AAD30AAD6D0  Unknown               Unknown  Unknown

Stack trace terminated abnormally.
forrtl: error (78): process killed (SIGTERM)
Image              PC                Routine            Line        Source             
vasp_std           000000000138501E  Unknown               Unknown  Unknown
libpthread-2.17.s  00002B84636686D0  Unknown               Unknown  Unknown

Stack trace terminated abnormally.
forrtl: error (78): process killed (SIGTERM)
Image              PC                Routine            Line        Source             
vasp_std           000000000138501E  Unknown               Unknown  Unknown
libpthread-2.17.s  00002AAE690646D0  Unknown               Unknown  Unknown

Stack trace terminated abnormally.
forrtl: error (78): process killed (SIGTERM)
Image              PC                Routine            Line        Source             
vasp_std           000000000138501E  Unknown               Unknown  Unknown
libpthread-2.17.s  00002AD290D3B6D0  Unknown               Unknown  Unknown

Stack trace terminated abnormally.
forrtl: error (78): process killed (SIGTERM)
Image              PC                Routine            Line        Source             
vasp_std           000000000138501E  Unknown               Unknown  Unknown
libpthread-2.17.s  00002B6E800D66D0  Unknown               Unknown  Unknown

Stack trace terminated abnormally.
forrtl: error (78): process killed (SIGTERM)
Image              PC                Routine            Line        Source             
vasp_std           000000000138501E  Unknown               Unknown  Unknown
libpthread-2.17.s  00002B5132E4D6D0  Unknown               Unknown  Unknown

Stack trace terminated abnormally.
forrtl: error (78): process killed (SIGTERM)
Image              PC                Routine            Line        Source             
vasp_std           000000000138501E  Unknown               Unknown  Unknown
libpthread-2.17.s  00002B8D3F38D6D0  Unknown               Unknown  Unknown

Stack trace terminated abnormally.
