 running on   20 total cores
 distrk:  each k-point on   20 cores,    1 groups
 distr:  one band on    1 cores,   20 groups
 using from now: INCAR     
 vasp.5.4.1 05Feb16 (build Sep 02 2018 21:45:25) complex                        
  
 POSCAR found type information on POSCAR  Cu
 POSCAR found :  1 types and      64 ions
 scaLAPACK will be used

 ----------------------------------------------------------------------------- 
|                                                                             |
|           W    W    AA    RRRRR   N    N  II  N    N   GGGG   !!!           |
|           W    W   A  A   R    R  NN   N  II  NN   N  G    G  !!!           |
|           W    W  A    A  R    R  N N  N  II  N N  N  G       !!!           |
|           W WW W  AAAAAA  RRRRR   N  N N  II  N  N N  G  GGG   !            |
|           WW  WW  A    A  R   R   N   NN  II  N   NN  G    G                |
|           W    W  A    A  R    R  N    N  II  N    N   GGGG   !!!           |
|                                                                             |
|      For optimal performance we recommend to set                            |
|        NCORE= 4 - approx SQRT( number of cores)                             |
|      NCORE specifies how many cores store one orbital (NPAR=cpu/NCORE).     |
|      This setting can  greatly improve the performance of VASP for DFT.     |
|      The default, NPAR=number of cores might be grossly inefficient         |
|      on modern multi-core architectures or massively parallel machines.     |
|      Do your own testing !!!!                                               |
|      Unfortunately you need to use the default for GW and RPA calculations. |
|      (for HF NCORE is supported but not extensively tested yet)             |
|                                                                             |
 ----------------------------------------------------------------------------- 

 LDA part: xc-table for Ceperly-Alder, standard interpolation
 POSCAR, INCAR and KPOINTS ok, starting setup
 WARNING: small aliasing (wrap around) errors must be expected
 FFT: planning ...
 WAVECAR not read
 entering main loop
       N       E                     dE             d eps       ncg     rms          rms(c)
DAV:   1     0.554843148789E+04    0.55484E+04   -0.31060E+05 14080   0.190E+03
DAV:   2     0.366153864140E+03   -0.51823E+04   -0.49302E+04 14080   0.420E+02
DAV:   3    -0.247431502766E+03   -0.61359E+03   -0.56888E+03 14200   0.174E+02
DAV:   4    -0.272374466249E+03   -0.24943E+02   -0.24670E+02 15200   0.405E+01
DAV:   5    -0.272555906152E+03   -0.18144E+00   -0.18131E+00 15540   0.315E+00    0.530E+01
DAV:   6    -0.246908774701E+03    0.25647E+02   -0.53413E+02 15360   0.893E+01    0.266E+01
DAV:   7    -0.224403353138E+03    0.22505E+02   -0.10409E+02 15840   0.416E+01    0.336E+00
DAV:   8    -0.224547412253E+03   -0.14406E+00   -0.63740E+00 16740   0.214E+01    0.500E+00
DAV:   9    -0.224177596304E+03    0.36982E+00   -0.40377E+00 16220   0.200E+01    0.331E+00
DAV:  10    -0.223985288035E+03    0.19231E+00   -0.98559E-01 21120   0.905E+00    0.243E+00
DAV:  11    -0.223880887137E+03    0.10440E+00   -0.45201E-01 14760   0.404E+00    0.808E-01
DAV:  12    -0.223875421393E+03    0.54657E-02   -0.13260E-01 14740   0.131E+00    0.357E-01
DAV:  13    -0.223859947904E+03    0.15473E-01   -0.26559E-02 14440   0.134E+00    0.263E-01
DAV:  14    -0.223855597122E+03    0.43508E-02   -0.74651E-03 14840   0.738E-01    0.168E-01
DAV:  15    -0.223851806099E+03    0.37910E-02   -0.76717E-03 14520   0.732E-01    0.139E-01
DAV:  16    -0.223852169851E+03   -0.36375E-03   -0.34145E-03 14380   0.349E-01    0.490E-02
DAV:  17    -0.223860187944E+03   -0.80181E-02   -0.49953E-03 16300   0.687E-01    0.107E-01
DAV:  18    -0.223864419075E+03   -0.42311E-02   -0.86418E-03 18800   0.847E-01    0.462E-02
DAV:  19    -0.223866449883E+03   -0.20308E-02   -0.14599E-03 14340   0.151E-01    0.543E-02
DAV:  20    -0.223866662036E+03   -0.21215E-03   -0.29226E-04 14680   0.836E-02    0.437E-02
DAV:  21    -0.223866520506E+03    0.14153E-03   -0.66972E-04 12400   0.217E-01    0.111E-02
DAV:  22    -0.223866582622E+03   -0.62116E-04   -0.14203E-04 14500   0.843E-02    0.219E-02
DAV:  23    -0.223866586373E+03   -0.37511E-05   -0.51434E-05 14540   0.274E-02
   1 F= -.22386659E+03 E0= -.22386566E+03  d E =-.223867E+03
 curvature:   0.00 expect dE= 0.000E+00 dE for cont linesearch  0.000E+00
 trial: gam= 0.00000 g(F)=  0.293E-03 g(S)=  0.000E+00 ort = 0.000E+00 (trialstep = 0.100E+01)
 search vector abs. value=  0.293E-03
 bond charge predicted
       N       E                     dE             d eps       ncg     rms          rms(c)
DAV:   1    -0.223866888950E+03   -0.30633E-03   -0.14688E-02 14620   0.200E-01    0.237E-02
DAV:   2    -0.223867324216E+03   -0.43527E-03   -0.30037E-03 16560   0.605E-01    0.870E-02
DAV:   3    -0.223866852883E+03    0.47133E-03   -0.18635E-03 16100   0.485E-01    0.493E-03
DAV:   4    -0.223866855425E+03   -0.25414E-05   -0.33302E-05 12960   0.203E-02
   2 F= -.22386686E+03 E0= -.22386593E+03  d E =-.269052E-03
 ZBRENT: can't locate minimum, use default step
 trial-energy change:   -0.000269  1 .order   -0.000288   -0.000293   -0.000282
 step:   4.0000(harm= 26.9081)  dis= 0.00138  next Energy=  -223.870528 (dE=-0.394E-02)
 bond charge predicted
       N       E                     dE             d eps       ncg     rms          rms(c)
DAV:   1    -0.223867586753E+03   -0.73387E-03   -0.13171E-01 14360   0.589E-01    0.251E-02
DAV:   2    -0.223867603379E+03   -0.16626E-04   -0.37472E-04 15200   0.888E-02    0.233E-02
DAV:   3    -0.223867599816E+03    0.35632E-05   -0.73906E-05 15320   0.854E-02
   3 F= -.22386760E+03 E0= -.22386668E+03  d E =-.101344E-02
 curvature:  -2.94 expect dE=-0.624E-03 dE for cont linesearch -0.581E-03
 ZBRENT: increasing intervall
 opt :  10.0000  next Energy=  -223.868798 (dE=-0.221E-02)
 bond charge predicted
       N       E                     dE             d eps       ncg     rms          rms(c)
DAV:   1    -0.223868864702E+03   -0.12613E-02   -0.52650E-01 14240   0.118E+00    0.521E-02
DAV:   2    -0.223868983895E+03   -0.11919E-03   -0.16892E-03 17060   0.339E-01    0.607E-02
DAV:   3    -0.223868914616E+03    0.69279E-04   -0.12169E-03 15580   0.354E-01    0.399E-02
DAV:   4    -0.223868890789E+03    0.23827E-04   -0.24223E-04 15560   0.160E-01    0.248E-02
DAV:   5    -0.223868869706E+03    0.21083E-04   -0.10225E-04 15700   0.877E-02    0.431E-03
DAV:   6    -0.223868870736E+03   -0.10302E-05   -0.37634E-05 11840   0.318E-02
   4 F= -.22386887E+03 E0= -.22386796E+03  d E =-.228436E-02
 curvature:  -6.05 expect dE=-0.111E-02 dE for cont linesearch -0.816E-03
 ZBRENT: increasing intervall
 opt :  22.0000  next Energy=  -223.870750 (dE=-0.416E-02)
 bond charge predicted
       N       E                     dE             d eps       ncg     rms          rms(c)
DAV:   1    -0.223870216793E+03   -0.13471E-02   -0.21068E+00 14080   0.235E+00    0.928E-02
DAV:   2    -0.223870613425E+03   -0.39663E-03   -0.61934E-03 16040   0.470E-01    0.101E-01
DAV:   3    -0.223870553143E+03    0.60282E-04   -0.17711E-03 15660   0.426E-01    0.596E-02
DAV:   4    -0.223870529055E+03    0.24088E-04   -0.11111E-03 16460   0.354E-01    0.531E-02
DAV:   5    -0.223870406006E+03    0.12305E-03   -0.48194E-04 20440   0.226E-01    0.127E-02
DAV:   6    -0.223870416881E+03   -0.10875E-04   -0.15730E-04 15440   0.471E-02    0.144E-02
DAV:   7    -0.223870415755E+03    0.11258E-05   -0.15641E-05  8540   0.237E-02
   5 F= -.22387042E+03 E0= -.22386955E+03  d E =-.382938E-02
 curvature: -13.94 expect dE=-0.260E-02 dE for cont linesearch -0.408E-03
 ZBRENT: increasing intervall
 opt :  46.0000  next Energy=  -223.870090 (dE=-0.350E-02)
 bond charge predicted
       N       E                     dE             d eps       ncg     rms          rms(c)
DAV:   1    -0.223869451492E+03    0.96539E-03   -0.84289E+00 14080   0.471E+00    0.186E-01
DAV:   2    -0.223870986728E+03   -0.15352E-02   -0.24181E-02 16380   0.922E-01    0.201E-01
DAV:   3    -0.223870776102E+03    0.21063E-03   -0.70259E-03 15700   0.845E-01    0.120E-01
DAV:   4    -0.223870709791E+03    0.66310E-04   -0.46666E-03 16120   0.731E-01    0.109E-01
DAV:   5    -0.223870219998E+03    0.48979E-03   -0.20660E-03 22360   0.452E-01    0.255E-02
DAV:   6    -0.223870259174E+03   -0.39176E-04   -0.56240E-04 15400   0.879E-02    0.251E-02
DAV:   7    -0.223870257208E+03    0.19659E-05   -0.63968E-05 14680   0.463E-02
   6 F= -.22387026E+03 E0= -.22386950E+03  d E =-.367084E-02
 curvature:  11.14 expect dE= 0.662E-02 dE for cont linesearch  0.284E-03
 ZBRENT: bracketing found
 ZBRENT: interpolating
 opt :  34.4093  next Energy=  -223.870758 (dE=-0.417E-02)
 bond charge predicted
       N       E                     dE             d eps       ncg     rms          rms(c)
DAV:   1    -0.223870583717E+03   -0.32454E-03   -0.19650E+00 14120   0.227E+00    0.916E-02
DAV:   2    -0.223870927152E+03   -0.34344E-03   -0.56571E-03 15640   0.405E-01    0.933E-02
DAV:   3    -0.223870896951E+03    0.30201E-04   -0.15317E-03 15700   0.400E-01    0.585E-02
DAV:   4    -0.223870867060E+03    0.29891E-04   -0.11476E-03 19200   0.349E-01    0.471E-02
DAV:   5    -0.223870768137E+03    0.98923E-04   -0.48690E-04 23280   0.230E-01    0.127E-02
DAV:   6    -0.223870779124E+03   -0.10987E-04   -0.14770E-04 15520   0.554E-02    0.149E-02
DAV:   7    -0.223870777032E+03    0.20929E-05   -0.17508E-05  8440   0.236E-02
   7 F= -.22387078E+03 E0= -.22386995E+03  d E =-.419066E-02
 curvature: -19.63 expect dE=-0.602E-02 dE for cont linesearch -0.395E-06
 trial: gam= 1.05550 g(F)=  0.307E-03 g(S)=  0.000E+00 ort =-0.243E-05 (trialstep = 0.358E+01)
 search vector abs. value=  0.628E-03
 bond charge predicted
       N       E                     dE             d eps       ncg     rms          rms(c)
DAV:   1    -0.223871742482E+03   -0.96336E-03   -0.40776E-01 14160   0.101E+00    0.437E-02
DAV:   2    -0.223871798512E+03   -0.56030E-04   -0.10375E-03 17100   0.198E-01    0.440E-02
DAV:   3    -0.223871793770E+03    0.47418E-05   -0.45380E-04 15600   0.214E-01    0.297E-02
DAV:   4    -0.223871778416E+03    0.15354E-04   -0.23971E-04 15560   0.170E-01    0.228E-02
DAV:   5    -0.223871752354E+03    0.26062E-04   -0.74253E-05 13780   0.895E-02    0.530E-03
DAV:   6    -0.223871754214E+03   -0.18607E-05   -0.29610E-05 11340   0.224E-02
   8 F= -.22387175E+03 E0= -.22387094E+03  d E =-.977183E-03
 ZBRENT: can't locate minimum, use default step
 trial-energy change:   -0.000977  1 .order   -0.001016   -0.001090   -0.000942
 step:  14.3332(harm= 26.3247)  dis= 0.00867  next Energy=  -223.874781 (dE=-0.400E-02)
 bond charge predicted
       N       E                     dE             d eps       ncg     rms          rms(c)
DAV:   1    -0.223873662949E+03   -0.19106E-02   -0.36710E+00 14100   0.303E+00    0.130E-01
DAV:   2    -0.223874249539E+03   -0.58659E-03   -0.90407E-03 17660   0.608E-01    0.131E-01
DAV:   3    -0.223874229081E+03    0.20457E-04   -0.45233E-03 15560   0.677E-01    0.901E-02
DAV:   4    -0.223874106048E+03    0.12303E-03   -0.19842E-03 15820   0.491E-01    0.661E-02
DAV:   5    -0.223873946020E+03    0.16003E-03   -0.62249E-04 19820   0.246E-01    0.150E-02
DAV:   6    -0.223873960420E+03   -0.14400E-04   -0.21074E-04 15080   0.698E-02    0.135E-02
DAV:   7    -0.223873961875E+03   -0.14547E-05   -0.49469E-05 13700   0.443E-02
   9 F= -.22387396E+03 E0= -.22387317E+03  d E =-.318484E-02
 curvature: -19.62 expect dE=-0.917E-03 dE for cont linesearch -0.560E-03
 ZBRENT: increasing intervall
 opt :  35.8331  next Energy=  -223.874069 (dE=-0.329E-02)
 bond charge predicted
       N       E                     dE             d eps       ncg     rms          rms(c)
DAV:   1    -0.223869979800E+03    0.39806E-02   -0.14696E+01 14080   0.607E+00    0.256E-01
DAV:   2    -0.223872195152E+03   -0.22154E-02   -0.34179E-02 17340   0.109E+00    0.247E-01
DAV:   3    -0.223872351773E+03   -0.15662E-03   -0.16834E-02 15600   0.130E+00    0.184E-01
DAV:   4    -0.223871856251E+03    0.49552E-03   -0.78677E-03 15740   0.101E+00    0.134E-01
DAV:   5    -0.223871257625E+03    0.59863E-03   -0.25008E-03 21180   0.515E-01    0.306E-02
DAV:   6    -0.223871316836E+03   -0.59211E-04   -0.83912E-04 14780   0.128E-01    0.244E-02
DAV:   7    -0.223871320870E+03   -0.40338E-05   -0.17059E-04 14960   0.842E-02    0.160E-02
DAV:   8    -0.223871316218E+03    0.46518E-05   -0.11133E-05  8520   0.213E-02
  10 F= -.22387132E+03 E0= -.22387057E+03  d E =-.539187E-03
 curvature:  -3.76 expect dE=-0.955E-03 dE for cont linesearch -0.448E-03
 ZBRENT: bracketing found
 ZBRENT: interpolating
 opt :  21.3992  next Energy=  -223.874435 (dE=-0.366E-02)
 bond charge predicted
       N       E                     dE             d eps       ncg     rms          rms(c)
DAV:   1    -0.223873456688E+03   -0.21358E-02   -0.66229E+00 14080   0.407E+00    0.183E-01
DAV:   2    -0.223874853040E+03   -0.13964E-02   -0.18820E-02 16720   0.996E-01    0.199E-01
DAV:   3    -0.223874640871E+03    0.21217E-03   -0.94948E-03 15680   0.100E+00    0.119E-01
DAV:   4    -0.223874407672E+03    0.23320E-03   -0.33658E-03 16360   0.624E-01    0.857E-02
DAV:   5    -0.223874222531E+03    0.18514E-03   -0.10954E-03 15680   0.314E-01    0.271E-02
DAV:   6    -0.223874260984E+03   -0.38453E-04   -0.54575E-04 15680   0.117E-01    0.269E-02
DAV:   7    -0.223874258277E+03    0.27073E-05   -0.11646E-04 14760   0.720E-02    0.140E-02
DAV:   8    -0.223874254141E+03    0.41362E-05   -0.50077E-06  8160   0.215E-02
  11 F= -.22387425E+03 E0= -.22387347E+03  d E =-.347711E-02
 curvature:  -3.97 expect dE=-0.143E-04 dE for cont linesearch -0.251E-05
 trial: gam= 0.00000 g(F)=  0.360E-05 g(S)=  0.000E+00 ort =-0.199E-04 (trialstep = 0.715E+01)
 search vector abs. value=  0.360E-05
 reached required accuracy - stopping structural energy minimisation
 writing wavefunctions
