 vasp.5.4.1 05Feb16 (build Nov 22 2018 20:17:51) complex                        
  
 POSCAR found type information on POSCAR  Cu Ag
 04/POSCAR found :  2 types and      37 ions
 scaLAPACK will be used

 ----------------------------------------------------------------------------- 
|                                                                             |
|           W    W    AA    RRRRR   N    N  II  N    N   GGGG   !!!           |
|           W    W   A  A   R    R  NN   N  II  NN   N  G    G  !!!           |
|           W    W  A    A  R    R  N N  N  II  N N  N  G       !!!           |
|           W WW W  AAAAAA  RRRRR   N  N N  II  N  N N  G  GGG   !            |
|           WW  WW  A    A  R   R   N   NN  II  N   NN  G    G                |
|           W    W  A    A  R    R  N    N  II  N    N   GGGG   !!!           |
|                                                                             |
|      For optimal performance we recommend to set                            |
|        NCORE= 4 - approx SQRT( number of cores)                             |
|      NCORE specifies how many cores store one orbital (NPAR=cpu/NCORE).     |
|      This setting can  greatly improve the performance of VASP for DFT.     |
|      The default, NPAR=number of cores might be grossly inefficient         |
|      on modern multi-core architectures or massively parallel machines.     |
|      Do your own testing !!!!                                               |
|      Unfortunately you need to use the default for GW and RPA calculations. |
|      (for HF NCORE is supported but not extensively tested yet)             |
|                                                                             |
 ----------------------------------------------------------------------------- 

 LDA part: xc-table for Ceperly-Alder, standard interpolation
 POSCAR found type information on POSCAR  Cu Ag
 00/POSCAR found :  2 types and      37 ions
 POSCAR found type information on POSCAR  Cu Ag
 06/POSCAR found :  2 types and      37 ions
 Jacobian:    19.6723208379109     
 POSCAR, INCAR and KPOINTS ok, starting setup
 WARNING: small aliasing (wrap around) errors must be expected
 FFT: planning ...
 WAVECAR not read
 entering main loop
       N       E                     dE             d eps       ncg     rms          rms(c)
DAV:   1     0.308004421072E+04    0.30800E+04   -0.17787E+05  4464   0.177E+03
DAV:   2     0.171155200464E+03   -0.29089E+04   -0.27676E+04  4464   0.404E+02
DAV:   3    -0.143207892214E+03   -0.31436E+03   -0.29583E+03  4632   0.167E+02
DAV:   4    -0.155387841342E+03   -0.12180E+02   -0.12019E+02  4800   0.369E+01
DAV:   5    -0.155499581489E+03   -0.11174E+00   -0.11162E+00  4856   0.299E+00    0.396E+01
DAV:   6    -0.140859903877E+03    0.14640E+02   -0.31474E+02  4872   0.938E+01    0.200E+01
DAV:   7    -0.127966583332E+03    0.12893E+02   -0.60918E+01  4992   0.497E+01    0.308E+00
DAV:   8    -0.128510552157E+03   -0.54397E+00   -0.64880E+00  5096   0.362E+01    0.452E+00
DAV:   9    -0.128040290415E+03    0.47026E+00   -0.21958E+00  5528   0.292E+01    0.265E+00
DAV:  10    -0.127927525099E+03    0.11277E+00   -0.62074E-01  6168   0.110E+01    0.194E+00
DAV:  11    -0.127887119675E+03    0.40405E-01   -0.62559E-01  4688   0.587E+00    0.839E-01
DAV:  12    -0.127887960672E+03   -0.84100E-03   -0.10721E-01  4824   0.176E+00    0.635E-01
DAV:  13    -0.127879190465E+03    0.87702E-02   -0.38448E-02  4832   0.206E+00    0.366E-01
DAV:  14    -0.127875224824E+03    0.39656E-02   -0.17240E-02  4776   0.121E+00    0.195E-01
DAV:  15    -0.127871556042E+03    0.36688E-02   -0.10457E-02  4664   0.989E-01    0.190E-01
DAV:  16    -0.127869530043E+03    0.20260E-02   -0.57824E-03  4648   0.528E-01    0.788E-02
DAV:  17    -0.127869561460E+03   -0.31416E-04   -0.17423E-03  4608   0.394E-01    0.641E-02
DAV:  18    -0.127870991317E+03   -0.14299E-02   -0.96442E-04  4584   0.265E-01    0.606E-02
DAV:  19    -0.127873454936E+03   -0.24636E-02   -0.12843E-03  4616   0.242E-01    0.533E-02
DAV:  20    -0.127875272791E+03   -0.18179E-02   -0.35139E-04  5104   0.137E-01    0.457E-02
DAV:  21    -0.127875712974E+03   -0.44018E-03   -0.38631E-04  4632   0.382E-01    0.172E-02
DAV:  22    -0.127875944611E+03   -0.23164E-03   -0.33029E-04  4616   0.100E-01    0.222E-02
DAV:  23    -0.127875984229E+03   -0.39618E-04   -0.67950E-05  4720   0.599E-02    0.263E-02
DAV:  24    -0.127875968442E+03    0.15787E-04   -0.42846E-05  3664   0.895E-02    0.506E-03
DAV:  25    -0.127875979225E+03   -0.10783E-04   -0.69634E-05  4552   0.328E-02    0.116E-02
DAV:  26    -0.127875977435E+03    0.17901E-05   -0.76405E-06  2760   0.231E-02
   1 F= -.12787598E+03 E0= -.12783716E+03  d E =-.127876E+03
quench:  g(F)=  0.000E+00 g(S)=  0.000E+00 dE (1.order)= 0.000E+00
 bond charge predicted
       N       E                     dE             d eps       ncg     rms          rms(c)
DAV:   1    -0.127877936492E+03   -0.19573E-02   -0.36205E-02  4664   0.402E-01    0.151E-02
DAV:   2    -0.127878026595E+03   -0.90103E-04   -0.30730E-04  5952   0.377E-01    0.346E-02
DAV:   3    -0.127877942346E+03    0.84249E-04   -0.14994E-04  4776   0.318E-01    0.758E-03
DAV:   4    -0.127877947144E+03   -0.47985E-05   -0.57291E-05  4688   0.355E-02
   2 F= -.12787795E+03 E0= -.12783912E+03  d E =-.196971E-02
quench:  g(F)=  0.000E+00 g(S)=  0.000E+00 dE (1.order)= 0.000E+00
 bond charge predicted
       N       E                     dE             d eps       ncg     rms          rms(c)
DAV:   1    -0.127896234983E+03   -0.18293E-01   -0.63558E+00  4472   0.521E+00    0.156E-01
DAV:   2    -0.127898820483E+03   -0.25855E-02   -0.32373E-02  4776   0.903E-01    0.146E-01
DAV:   3    -0.127898767753E+03    0.52730E-04   -0.43526E-03  4784   0.737E-01    0.869E-02
DAV:   4    -0.127898605006E+03    0.16275E-03   -0.61389E-04  4624   0.279E-01    0.430E-02
DAV:   5    -0.127898576122E+03    0.28885E-04   -0.32686E-04  4936   0.114E-01    0.135E-02
DAV:   6    -0.127898575972E+03    0.14970E-06   -0.64467E-05  4680   0.892E-02
   3 F= -.12789858E+03 E0= -.12785985E+03  d E =-.206288E-01
quench:  g(F)=  0.000E+00 g(S)=  0.000E+00 dE (1.order)= 0.000E+00
 bond charge predicted
       N       E                     dE             d eps       ncg     rms          rms(c)
DAV:   1    -0.127912478613E+03   -0.13902E-01   -0.24468E+01  4464   0.102E+01    0.282E-01
DAV:   2    -0.127921917956E+03   -0.94393E-02   -0.11487E-01  4888   0.164E+00    0.273E-01
DAV:   3    -0.127921552110E+03    0.36585E-03   -0.12412E-02  4872   0.141E+00    0.164E-01
DAV:   4    -0.127921565502E+03   -0.13392E-04   -0.27066E-03  4848   0.123E+00    0.135E-01
DAV:   5    -0.127920965391E+03    0.60011E-03   -0.25089E-03  5144   0.135E+00    0.825E-02
DAV:   6    -0.127920729570E+03    0.23582E-03   -0.16225E-03  6832   0.506E-01    0.205E-02
DAV:   7    -0.127920755222E+03   -0.25652E-04   -0.48173E-04  4712   0.111E-01    0.176E-02
DAV:   8    -0.127920755437E+03   -0.21533E-06   -0.98301E-05  4520   0.677E-02
   4 F= -.12792076E+03 E0= -.12788206E+03  d E =-.221795E-01
quench:  g(F)=  0.000E+00 g(S)=  0.000E+00 dE (1.order)= 0.000E+00
 bond charge predicted
       N       E                     dE             d eps       ncg     rms          rms(c)
DAV:   1    -0.127925780024E+03   -0.50248E-02   -0.29781E+01  4464   0.109E+01    0.277E-01
DAV:   2    -0.127938615918E+03   -0.12836E-01   -0.14910E-01  4704   0.128E+00    0.226E-01
DAV:   3    -0.127938215771E+03    0.40015E-03   -0.73158E-03  4848   0.104E+00    0.166E-01
DAV:   4    -0.127938126641E+03    0.89130E-04   -0.24222E-03  4888   0.125E+00    0.138E-01
DAV:   5    -0.127937742912E+03    0.38373E-03   -0.23244E-03  5944   0.130E+00    0.967E-02
DAV:   6    -0.127937304065E+03    0.43885E-03   -0.16915E-03  7504   0.650E-01    0.216E-02
DAV:   7    -0.127937333416E+03   -0.29351E-04   -0.51601E-04  4720   0.113E-01    0.200E-02
DAV:   8    -0.127937329921E+03    0.34949E-05   -0.62186E-05  4512   0.642E-02
   5 F= -.12793733E+03 E0= -.12789846E+03  d E =-.165745E-01
quench:  g(F)=  0.000E+00 g(S)=  0.000E+00 dE (1.order)= 0.000E+00
 bond charge predicted
       N       E                     dE             d eps       ncg     rms          rms(c)
DAV:   1    -0.127903474246E+03    0.33859E-01   -0.79858E+01  4464   0.160E+01    0.414E-01
DAV:   2    -0.127951716396E+03   -0.48242E-01   -0.52989E-01  4696   0.208E+00    0.364E-01
DAV:   3    -0.127950913116E+03    0.80328E-03   -0.23898E-02  4664   0.138E+00    0.247E-01
DAV:   4    -0.127950367404E+03    0.54571E-03   -0.39190E-03  4792   0.124E+00    0.212E-01
DAV:   5    -0.127949991759E+03    0.37565E-03   -0.34343E-03  5272   0.154E+00    0.175E-01
DAV:   6    -0.127948742436E+03    0.12493E-02   -0.41682E-03  7344   0.110E+00    0.348E-02
DAV:   7    -0.127948835022E+03   -0.92586E-04   -0.14566E-03  5712   0.281E-01    0.290E-02
DAV:   8    -0.127948824244E+03    0.10778E-04   -0.30508E-04  4704   0.143E-01    0.222E-02
DAV:   9    -0.127948815041E+03    0.92026E-05   -0.61038E-05  4680   0.709E-02
   6 F= -.12794882E+03 E0= -.12791001E+03  d E =-.114851E-01
quench:  g(F)=  0.000E+00 g(S)=  0.000E+00 dE (1.order)= 0.000E+00
 bond charge predicted
       N       E                     dE             d eps       ncg     rms          rms(c)
DAV:   1    -0.127722926665E+03    0.22590E+00   -0.31323E+02  4464   0.314E+01    0.915E-01
DAV:   2    -0.127966653165E+03   -0.24373E+00   -0.26923E+00  4720   0.496E+00    0.802E-01
DAV:   3    -0.127963851329E+03    0.28018E-02   -0.13596E-01  4768   0.327E+00    0.491E-01
DAV:   4    -0.127962032177E+03    0.18192E-02   -0.20452E-02  4896   0.265E+00    0.434E-01
DAV:   5    -0.127959016138E+03    0.30160E-02   -0.10757E-02  5088   0.253E+00    0.338E-01
DAV:   6    -0.127955199794E+03    0.38163E-02   -0.15111E-02  6848   0.168E+00    0.853E-02
DAV:   7    -0.127955449597E+03   -0.24980E-03   -0.59467E-03  5840   0.657E-01    0.592E-02
DAV:   8    -0.127955433363E+03    0.16234E-04   -0.13400E-03  4632   0.352E-01    0.444E-02
DAV:   9    -0.127955407072E+03    0.26291E-04   -0.31618E-04  4832   0.173E-01    0.226E-02
DAV:  10    -0.127955415101E+03   -0.80296E-05   -0.21940E-04  4688   0.118E-01    0.147E-02
DAV:  11    -0.127955417462E+03   -0.23608E-05   -0.61230E-05  4704   0.485E-02
   7 F= -.12795542E+03 E0= -.12791579E+03  d E =-.660242E-02
quench:  g(F)=  0.000E+00 g(S)=  0.000E+00 dE (1.order)= 0.000E+00
 bond charge predicted
       N       E                     dE             d eps       ncg     rms          rms(c)
DAV:   1    -0.127771705807E+03    0.18371E+00   -0.29612E+02  4464   0.313E+01    0.896E-01
DAV:   2    -0.127996773025E+03   -0.22507E+00   -0.24393E+00  5328   0.657E+00    0.984E-01
DAV:   3    -0.127985782738E+03    0.10990E-01   -0.14286E-01  4808   0.458E+00    0.503E-01
DAV:   4    -0.127983511045E+03    0.22717E-02   -0.20546E-02  4912   0.228E+00    0.441E-01
DAV:   5    -0.127981562327E+03    0.19487E-02   -0.12764E-02  5000   0.258E+00    0.363E-01
DAV:   6    -0.127976541564E+03    0.50208E-02   -0.21173E-02  6656   0.151E+00    0.697E-02
DAV:   7    -0.127977027600E+03   -0.48604E-03   -0.58364E-03  4600   0.521E-01    0.791E-02
DAV:   8    -0.127976971838E+03    0.55762E-04   -0.14894E-03  4632   0.420E-01    0.470E-02
DAV:   9    -0.127976928302E+03    0.43536E-04   -0.17195E-04  4992   0.154E-01    0.253E-02
DAV:  10    -0.127976943812E+03   -0.15510E-04   -0.28842E-04  4752   0.143E-01    0.182E-02
DAV:  11    -0.127976947338E+03   -0.35257E-05   -0.64936E-05  4664   0.598E-02
   8 F= -.12797695E+03 E0= -.12793785E+03  d E =-.215299E-01
quench:  g(F)=  0.000E+00 g(S)=  0.000E+00 dE (1.order)= 0.000E+00
 bond charge predicted
       N       E                     dE             d eps       ncg     rms          rms(c)
DAV:   1    -0.127764541214E+03    0.21240E+00   -0.30171E+02  4464   0.334E+01    0.931E-01
DAV:   2    -0.127962266823E+03   -0.19773E+00   -0.21950E+00  5824   0.616E+00    0.976E-01
DAV:   3    -0.127954618120E+03    0.76487E-02   -0.14698E-01  4784   0.507E+00    0.546E-01
DAV:   4    -0.127952097609E+03    0.25205E-02   -0.27983E-02  5040   0.351E+00    0.482E-01
DAV:   5    -0.127947377894E+03    0.47197E-02   -0.17677E-02  5136   0.316E+00    0.349E-01
DAV:   6    -0.127943764862E+03    0.36130E-02   -0.27753E-02  6320   0.146E+00    0.829E-02
DAV:   7    -0.127944129106E+03   -0.36424E-03   -0.63401E-03  4632   0.473E-01    0.784E-02
DAV:   8    -0.127944106764E+03    0.22342E-04   -0.13382E-03  4696   0.344E-01    0.434E-02
DAV:   9    -0.127944069710E+03    0.37054E-04   -0.28185E-04  4808   0.155E-01    0.152E-02
DAV:  10    -0.127944081318E+03   -0.11608E-04   -0.89787E-05  4664   0.500E-02    0.101E-02
DAV:  11    -0.127944086707E+03   -0.53892E-05   -0.31233E-05  3592   0.671E-02
   9 F= -.12794409E+03 E0= -.12790561E+03  d E =0.328606E-01
quench:  g(F)=  0.000E+00 g(S)=  0.000E+00 dE (1.order)= 0.000E+00
 bond charge predicted
       N       E                     dE             d eps       ncg     rms          rms(c)
DAV:   1    -0.127925919166E+03    0.18162E-01   -0.50770E+01  4464   0.147E+01    0.407E-01
DAV:   2    -0.127945567179E+03   -0.19648E-01   -0.23683E-01  4952   0.227E+00    0.383E-01
DAV:   3    -0.127944854473E+03    0.71271E-03   -0.25369E-02  4688   0.217E+00    0.245E-01
DAV:   4    -0.127944602695E+03    0.25178E-03   -0.64304E-03  5048   0.196E+00    0.205E-01
DAV:   5    -0.127943062241E+03    0.15405E-02   -0.48044E-03  5824   0.182E+00    0.112E-01
DAV:   6    -0.127942718994E+03    0.34325E-03   -0.39430E-03  6640   0.683E-01    0.345E-02
DAV:   7    -0.127942775991E+03   -0.56997E-04   -0.10509E-03  4728   0.187E-01    0.307E-02
DAV:   8    -0.127942770579E+03    0.54118E-05   -0.21991E-04  4592   0.121E-01    0.172E-02
DAV:   9    -0.127942766825E+03    0.37541E-05   -0.59193E-05  4256   0.458E-02
  10 F= -.12794277E+03 E0= -.12790435E+03  d E =0.131988E-02
quench:  g(F)=  0.000E+00 g(S)=  0.000E+00 dE (1.order)= 0.000E+00
 bond charge predicted
       N       E                     dE             d eps       ncg     rms          rms(c)
DAV:   1    -0.127924288401E+03    0.18482E-01   -0.38243E+01  4464   0.132E+01    0.377E-01
DAV:   2    -0.127937701985E+03   -0.13414E-01   -0.17011E-01  4712   0.195E+00    0.350E-01
DAV:   3    -0.127936953924E+03    0.74806E-03   -0.19391E-02  4760   0.164E+00    0.219E-01
DAV:   4    -0.127935505728E+03    0.14482E-02   -0.28529E-03  5392   0.654E-01    0.826E-02
DAV:   5    -0.127935454946E+03    0.50782E-04   -0.15968E-03  6336   0.337E-01    0.421E-02
DAV:   6    -0.127935460006E+03   -0.50595E-05   -0.52359E-04  4632   0.482E-01    0.333E-02
DAV:   7    -0.127935412797E+03    0.47208E-04   -0.13487E-04  4832   0.267E-01    0.170E-02
DAV:   8    -0.127935410303E+03    0.24941E-05   -0.59396E-05  4608   0.936E-02
  11 F= -.12793541E+03 E0= -.12789683E+03  d E =0.735652E-02
quench:  g(F)=  0.000E+00 g(S)=  0.000E+00 dE (1.order)= 0.000E+00
 bond charge predicted
       N       E                     dE             d eps       ncg     rms          rms(c)
DAV:   1    -0.127932033621E+03    0.33792E-02   -0.13565E+01  4488   0.798E+00    0.224E-01
DAV:   2    -0.127935586960E+03   -0.35533E-02   -0.49815E-02  4704   0.968E-01    0.177E-01
DAV:   3    -0.127935314629E+03    0.27233E-03   -0.49982E-03  4824   0.875E-01    0.138E-01
DAV:   4    -0.127934780897E+03    0.53373E-03   -0.12583E-03  5544   0.556E-01    0.323E-02
DAV:   5    -0.127934806771E+03   -0.25874E-04   -0.54410E-04  6088   0.148E-01    0.215E-02
DAV:   6    -0.127934810758E+03   -0.39868E-05   -0.11264E-04  4664   0.220E-01    0.197E-02
DAV:   7    -0.127934795732E+03    0.15025E-04   -0.31664E-05  2872   0.143E-01    0.990E-03
DAV:   8    -0.127934794415E+03    0.13177E-05   -0.16858E-05  3056   0.589E-02
  12 F= -.12793479E+03 E0= -.12789601E+03  d E =0.615889E-03
quench:  g(F)=  0.000E+00 g(S)=  0.000E+00 dE (1.order)= 0.000E+00
 bond charge predicted
       N       E                     dE             d eps       ncg     rms          rms(c)
DAV:   1    -0.127920863259E+03    0.13932E-01   -0.33306E+01  4464   0.106E+01    0.260E-01
DAV:   2    -0.127938869139E+03   -0.18006E-01   -0.19656E-01  4608   0.127E+00    0.227E-01
DAV:   3    -0.127938340473E+03    0.52867E-03   -0.74236E-03  4744   0.911E-01    0.168E-01
DAV:   4    -0.127938054047E+03    0.28643E-03   -0.16262E-03  5048   0.917E-01    0.139E-01
DAV:   5    -0.127937931142E+03    0.12291E-03   -0.20009E-03  6336   0.117E+00    0.116E-01
DAV:   6    -0.127937263551E+03    0.66759E-03   -0.20161E-03  7736   0.776E-01    0.265E-02
DAV:   7    -0.127937302107E+03   -0.38556E-04   -0.60139E-04  5088   0.146E-01    0.181E-02
DAV:   8    -0.127937298535E+03    0.35722E-05   -0.79563E-05  4656   0.618E-02
  13 F= -.12793730E+03 E0= -.12789870E+03  d E =-.250412E-02
quench:  g(F)=  0.000E+00 g(S)=  0.000E+00 dE (1.order)= 0.000E+00
 bond charge predicted
       N       E                     dE             d eps       ncg     rms          rms(c)
DAV:   1    -0.127928577478E+03    0.87246E-02   -0.16163E+01  4488   0.856E+00    0.241E-01
DAV:   2    -0.127933482289E+03   -0.49048E-02   -0.62878E-02  4696   0.121E+00    0.214E-01
DAV:   3    -0.127933280559E+03    0.20173E-03   -0.84458E-03  4760   0.115E+00    0.150E-01
DAV:   4    -0.127933097479E+03    0.18308E-03   -0.19690E-03  5232   0.105E+00    0.102E-01
DAV:   5    -0.127932761742E+03    0.33574E-03   -0.19542E-03  5944   0.119E+00    0.617E-02
DAV:   6    -0.127932572374E+03    0.18937E-03   -0.95642E-04  7656   0.507E-01    0.150E-02
DAV:   7    -0.127932597337E+03   -0.24964E-04   -0.34410E-04  4712   0.871E-02    0.144E-02
DAV:   8    -0.127932596028E+03    0.13090E-05   -0.36544E-05  4144   0.440E-02
  14 F= -.12793260E+03 E0= -.12789413E+03  d E =0.470251E-02
quench:  g(F)=  0.000E+00 g(S)=  0.000E+00 dE (1.order)= 0.000E+00
 bond charge predicted
       N       E                     dE             d eps       ncg     rms          rms(c)
DAV:   1    -0.127825660309E+03    0.10694E+00   -0.21546E+02  4464   0.301E+01    0.828E-01
DAV:   2    -0.127922381203E+03   -0.96721E-01   -0.11570E+00  5424   0.464E+00    0.806E-01
DAV:   3    -0.127916156168E+03    0.62250E-02   -0.90615E-02  4752   0.413E+00    0.487E-01
DAV:   4    -0.127914448003E+03    0.17082E-02   -0.21861E-02  5168   0.348E+00    0.418E-01
DAV:   5    -0.127909550375E+03    0.48976E-02   -0.20226E-02  5648   0.361E+00    0.278E-01
DAV:   6    -0.127906899056E+03    0.26513E-02   -0.19661E-02  6944   0.162E+00    0.751E-02
DAV:   7    -0.127907155139E+03   -0.25608E-03   -0.51538E-03  4720   0.373E-01    0.636E-02
DAV:   8    -0.127907138520E+03    0.16618E-04   -0.10909E-03  4736   0.285E-01    0.374E-02
DAV:   9    -0.127907118356E+03    0.20164E-04   -0.27073E-04  4816   0.111E-01    0.177E-02
DAV:  10    -0.127907117721E+03    0.63543E-06   -0.53743E-05  4136   0.562E-02
  15 F= -.12790712E+03 E0= -.12786883E+03  d E =0.254783E-01
quench:  g(F)=  0.000E+00 g(S)=  0.000E+00 dE (1.order)= 0.000E+00
 bond charge predicted
       N       E                     dE             d eps       ncg     rms          rms(c)
DAV:   1    -0.127923404398E+03   -0.16286E-01   -0.35093E+01  4464   0.130E+01    0.373E-01
DAV:   2    -0.127928514307E+03   -0.51099E-02   -0.92810E-02  4696   0.161E+00    0.323E-01
DAV:   3    -0.127927545727E+03    0.96858E-03   -0.15713E-02  4912   0.165E+00    0.226E-01
DAV:   4    -0.127927050146E+03    0.49558E-03   -0.55795E-03  8208   0.148E+00    0.125E-01
DAV:   5    -0.127926134834E+03    0.91531E-03   -0.39851E-03  5720   0.165E+00    0.102E-01
DAV:   6    -0.127925805342E+03    0.32949E-03   -0.11669E-03  5416   0.633E-01    0.364E-02
DAV:   7    -0.127925828006E+03   -0.22664E-04   -0.61987E-04  4632   0.127E-01    0.180E-02
DAV:   8    -0.127925828323E+03   -0.31785E-06   -0.10037E-04  4592   0.763E-02    0.135E-02
DAV:   9    -0.127925824836E+03    0.34873E-05   -0.15864E-05  2664   0.459E-02
  16 F= -.12792582E+03 E0= -.12788730E+03  d E =-.187071E-01
quench:  g(F)=  0.000E+00 g(S)=  0.000E+00 dE (1.order)= 0.000E+00
 bond charge predicted
       N       E                     dE             d eps       ncg     rms          rms(c)
DAV:   1    -0.127915860707E+03    0.99676E-02   -0.13307E+01  4464   0.710E+00    0.179E-01
DAV:   2    -0.127921674128E+03   -0.58134E-02   -0.66728E-02  4696   0.770E-01    0.144E-01
DAV:   3    -0.127921374970E+03    0.29916E-03   -0.25385E-03  4600   0.482E-01    0.104E-01
DAV:   4    -0.127921170189E+03    0.20478E-03   -0.71472E-04  5032   0.539E-01    0.789E-02
DAV:   5    -0.127921314819E+03   -0.14463E-03   -0.11072E-03  6984   0.837E-01    0.785E-02
DAV:   6    -0.127920962660E+03    0.35216E-03   -0.72839E-04  7680   0.653E-01    0.148E-02
DAV:   7    -0.127920973320E+03   -0.10660E-04   -0.21104E-04  5720   0.102E-01    0.104E-02
DAV:   8    -0.127920973062E+03    0.25866E-06   -0.38082E-05  4104   0.462E-02
  17 F= -.12792097E+03 E0= -.12788248E+03  d E =0.485177E-02
quench:  g(F)=  0.000E+00 g(S)=  0.000E+00 dE (1.order)= 0.000E+00
 bond charge predicted
       N       E                     dE             d eps       ncg     rms          rms(c)
DAV:   1    -0.127804124337E+03    0.11685E+00   -0.15883E+02  4464   0.216E+01    0.565E-01
DAV:   2    -0.127916924466E+03   -0.11280E+00   -0.12167E+00  4720   0.289E+00    0.507E-01
DAV:   3    -0.127914809615E+03    0.21149E-02   -0.44679E-02  4824   0.167E+00    0.337E-01
DAV:   4    -0.127913901466E+03    0.90815E-03   -0.69579E-03  5056   0.165E+00    0.302E-01
DAV:   5    -0.127911994211E+03    0.19073E-02   -0.49249E-03  5608   0.171E+00    0.220E-01
DAV:   6    -0.127910272066E+03    0.17221E-02   -0.76796E-03  6856   0.115E+00    0.591E-02
DAV:   7    -0.127910383268E+03   -0.11120E-03   -0.25345E-03  5608   0.415E-01    0.378E-02
DAV:   8    -0.127910376532E+03    0.67364E-05   -0.52859E-04  4696   0.149E-01    0.282E-02
DAV:   9    -0.127910363792E+03    0.12740E-04   -0.13567E-04  4920   0.120E-01    0.123E-02
DAV:  10    -0.127910368386E+03   -0.45943E-05   -0.34006E-05  3472   0.467E-02
  18 F= -.12791037E+03 E0= -.12787186E+03  d E =0.106047E-01
quench:  g(F)=  0.000E+00 g(S)=  0.000E+00 dE (1.order)= 0.000E+00
 bond charge predicted
       N       E                     dE             d eps       ncg     rms          rms(c)
DAV:   1    -0.127843157191E+03    0.67207E-01   -0.10599E+02  4464   0.188E+01    0.492E-01
DAV:   2    -0.127908489696E+03   -0.65333E-01   -0.71550E-01  4608   0.261E+00    0.444E-01
DAV:   3    -0.127907195828E+03    0.12939E-02   -0.34934E-02  4760   0.191E+00    0.299E-01
DAV:   4    -0.127906416006E+03    0.77982E-03   -0.63647E-03  4968   0.168E+00    0.257E-01
DAV:   5    -0.127905554449E+03    0.86156E-03   -0.52156E-03  5328   0.187E+00    0.205E-01
DAV:   6    -0.127903830373E+03    0.17241E-02   -0.65843E-03  7256   0.120E+00    0.380E-02
DAV:   7    -0.127903995053E+03   -0.16468E-03   -0.20890E-03  4752   0.289E-01    0.364E-02
DAV:   8    -0.127903982692E+03    0.12361E-04   -0.36202E-04  4672   0.157E-01    0.268E-02
DAV:   9    -0.127903965785E+03    0.16907E-04   -0.81527E-05  4856   0.799E-02    0.126E-02
DAV:  10    -0.127903969485E+03   -0.37003E-05   -0.61562E-05  3968   0.652E-02
  19 F= -.12790397E+03 E0= -.12786528E+03  d E =0.639890E-02
quench:  g(F)=  0.000E+00 g(S)=  0.000E+00 dE (1.order)= 0.000E+00
 bond charge predicted
       N       E                     dE             d eps       ncg     rms          rms(c)
DAV:   1    -0.127926154256E+03   -0.22188E-01   -0.15346E+02  4464   0.274E+01    0.836E-01
DAV:   2    -0.127952997608E+03   -0.26843E-01   -0.46783E-01  4856   0.464E+00    0.800E-01
DAV:   3    -0.127947522185E+03    0.54754E-02   -0.90210E-02  4816   0.474E+00    0.474E-01
DAV:   4    -0.127954143593E+03   -0.66214E-02   -0.36353E-02  5664   0.520E+00    0.495E-01
DAV:   5    -0.127937873745E+03    0.16270E-01   -0.29135E-02  7088   0.402E+00    0.137E-01
DAV:   6    -0.127938769971E+03   -0.89623E-03   -0.13615E-02  4760   0.647E-01    0.107E-01
DAV:   7    -0.127938686260E+03    0.83712E-04   -0.15482E-03  4656   0.262E-01    0.679E-02
DAV:   8    -0.127938575849E+03    0.11041E-03   -0.26520E-04  5112   0.126E-01    0.381E-02
DAV:   9    -0.127938555230E+03    0.20618E-04   -0.10306E-04  4512   0.105E-01    0.237E-02
DAV:  10    -0.127938539104E+03    0.16126E-04   -0.37896E-05  3720   0.108E-01    0.101E-02
DAV:  11    -0.127938540237E+03   -0.11326E-05   -0.43911E-05  4272   0.428E-02
  20 F= -.12793854E+03 E0= -.12790031E+03  d E =-.345708E-01
quench:  g(F)=  0.000E+00 g(S)=  0.000E+00 dE (1.order)= 0.000E+00
 bond charge predicted
       N       E                     dE             d eps       ncg     rms          rms(c)
DAV:   1    -0.127906411530E+03    0.32128E-01   -0.24029E+02  4464   0.344E+01    0.105E+00
DAV:   2    -0.127986931332E+03   -0.80520E-01   -0.10884E+00  4840   0.684E+00    0.112E+00
DAV:   3    -0.127976085300E+03    0.10846E-01   -0.17126E-01  4864   0.570E+00    0.549E-01
DAV:   4    -0.127986608541E+03   -0.10523E-01   -0.45293E-02  5976   0.535E+00    0.549E-01
DAV:   5    -0.127964722882E+03    0.21886E-01   -0.38559E-02  5272   0.526E+00    0.225E-01
DAV:   6    -0.127965587199E+03   -0.86432E-03   -0.22540E-02  6008   0.114E+00    0.135E-01
DAV:   7    -0.127965376876E+03    0.21032E-03   -0.35812E-03  4800   0.516E-01    0.541E-02
DAV:   8    -0.127965448876E+03   -0.72000E-04   -0.15491E-03  4672   0.250E-01    0.444E-02
DAV:   9    -0.127965435541E+03    0.13335E-04   -0.40178E-04  4696   0.180E-01    0.218E-02
DAV:  10    -0.127965426463E+03    0.90779E-05   -0.29480E-05  3448   0.109E-01
  21 F= -.12796543E+03 E0= -.12792550E+03  d E =-.268862E-01
quench:  g(F)=  0.000E+00 g(S)=  0.000E+00 dE (1.order)= 0.000E+00
 bond charge predicted
       N       E                     dE             d eps       ncg     rms          rms(c)
DAV:   1    -0.127980324458E+03   -0.14889E-01   -0.12297E+01  4464   0.764E+00    0.228E-01
DAV:   2    -0.127984922731E+03   -0.45983E-02   -0.56651E-02  4640   0.120E+00    0.200E-01
DAV:   3    -0.127985069877E+03   -0.14715E-03   -0.81374E-03  4752   0.126E+00    0.151E-01
DAV:   4    -0.127985193059E+03   -0.12318E-03   -0.26810E-03  4928   0.137E+00    0.125E-01
DAV:   5    -0.127984441841E+03    0.75122E-03   -0.14136E-03  6056   0.109E+00    0.335E-02
DAV:   6    -0.127984411263E+03    0.30578E-04   -0.57258E-04  7440   0.297E-01    0.143E-02
DAV:   7    -0.127984420055E+03   -0.87928E-05   -0.21911E-04  4576   0.103E-01    0.145E-02
DAV:   8    -0.127984421253E+03   -0.11972E-05   -0.50830E-05  4344   0.436E-02
  22 F= -.12798442E+03 E0= -.12794491E+03  d E =-.189948E-01
quench:  g(F)=  0.000E+00 g(S)=  0.000E+00 dE (1.order)= 0.000E+00
 bond charge predicted
       N       E                     dE             d eps       ncg     rms          rms(c)
DAV:   1    -0.127986800725E+03   -0.23807E-02   -0.41634E+00  4464   0.445E+00    0.135E-01
DAV:   2    -0.127988399265E+03   -0.15985E-02   -0.19365E-02  4528   0.715E-01    0.117E-01
DAV:   3    -0.127988504412E+03   -0.10515E-03   -0.30729E-03  4784   0.803E-01    0.943E-02
DAV:   4    -0.127988528922E+03   -0.24510E-04   -0.10522E-03  4736   0.856E-01    0.760E-02
DAV:   5    -0.127988260105E+03    0.26882E-03   -0.45912E-04  5968   0.618E-01    0.193E-02
DAV:   6    -0.127988253527E+03    0.65777E-05   -0.17831E-04  6896   0.159E-01    0.870E-03
DAV:   7    -0.127988255971E+03   -0.24440E-05   -0.76655E-05  4712   0.652E-02
  23 F= -.12798826E+03 E0= -.12794907E+03  d E =-.383472E-02
quench:  g(F)=  0.000E+00 g(S)=  0.000E+00 dE (1.order)= 0.000E+00
 bond charge predicted
       N       E                     dE             d eps       ncg     rms          rms(c)
DAV:   1    -0.127989584458E+03   -0.13309E-02   -0.35768E-01  4528   0.131E+00    0.374E-02
DAV:   2    -0.127989678725E+03   -0.94267E-04   -0.12287E-03  4728   0.205E-01    0.339E-02
DAV:   3    -0.127989688996E+03   -0.10271E-04   -0.27247E-04  4832   0.259E-01    0.272E-02
DAV:   4    -0.127989683059E+03    0.59366E-05   -0.84959E-05  4304   0.239E-01
  24 F= -.12798968E+03 E0= -.12795058E+03  d E =-.142709E-02
quench:  g(F)=  0.000E+00 g(S)=  0.000E+00 dE (1.order)= 0.000E+00
 bond charge predicted
       N       E                     dE             d eps       ncg     rms          rms(c)
DAV:   1    -0.127996620879E+03   -0.69319E-02   -0.69087E+00  4528   0.572E+00    0.158E-01
DAV:   2    -0.127997326970E+03   -0.70609E-03   -0.13951E-02  4704   0.746E-01    0.137E-01
DAV:   3    -0.127997405616E+03   -0.78646E-04   -0.35351E-03  4792   0.107E+00    0.115E-01
DAV:   4    -0.127997232485E+03    0.17313E-03   -0.15632E-03  5432   0.107E+00    0.778E-02
DAV:   5    -0.127996868179E+03    0.36431E-03   -0.10377E-03  8264   0.617E-01    0.299E-02
DAV:   6    -0.127996876221E+03   -0.80426E-05   -0.36320E-04  4680   0.100E-01    0.144E-02
DAV:   7    -0.127996876906E+03   -0.68423E-06   -0.42758E-05  4048   0.349E-02
  25 F= -.12799688E+03 E0= -.12795793E+03  d E =-.719385E-02
quench:  g(F)=  0.000E+00 g(S)=  0.000E+00 dE (1.order)= 0.000E+00
 bond charge predicted
       N       E                     dE             d eps       ncg     rms          rms(c)
DAV:   1    -0.127961781308E+03    0.35095E-01   -0.28131E+02  4464   0.374E+01    0.111E+00
DAV:   2    -0.128036954669E+03   -0.75173E-01   -0.10976E+00  4760   0.705E+00    0.115E+00
DAV:   3    -0.128025727000E+03    0.11228E-01   -0.16648E-01  4840   0.650E+00    0.603E-01
DAV:   4    -0.128035174594E+03   -0.94476E-02   -0.57564E-02  5736   0.628E+00    0.628E-01
DAV:   5    -0.128008578545E+03    0.26596E-01   -0.43828E-02  5512   0.522E+00    0.224E-01
DAV:   6    -0.128010910024E+03   -0.23315E-02   -0.34012E-02  5152   0.116E+00    0.206E-01
DAV:   7    -0.128010277392E+03    0.63263E-03   -0.46695E-03  4784   0.750E-01    0.720E-02
DAV:   8    -0.128010263144E+03    0.14248E-04   -0.12305E-03  5056   0.228E-01    0.447E-02
DAV:   9    -0.128010251672E+03    0.11473E-04   -0.42288E-04  4560   0.195E-01    0.209E-02
DAV:  10    -0.128010243676E+03    0.79961E-05   -0.36203E-05  3824   0.925E-02
  26 F= -.12801024E+03 E0= -.12796931E+03  d E =-.133668E-01
quench:  g(F)=  0.000E+00 g(S)=  0.000E+00 dE (1.order)= 0.000E+00
 bond charge predicted
       N       E                     dE             d eps       ncg     rms          rms(c)
DAV:   1    -0.128021176758E+03   -0.10925E-01   -0.49834E+01  4464   0.155E+01    0.475E-01
DAV:   2    -0.128042094084E+03   -0.20917E-01   -0.25553E-01  4536   0.272E+00    0.424E-01
DAV:   3    -0.128043429221E+03   -0.13351E-02   -0.39615E-02  4776   0.303E+00    0.317E-01
DAV:   4    -0.128043495787E+03   -0.66566E-04   -0.11427E-02  4960   0.292E+00    0.220E-01
DAV:   5    -0.128040369564E+03    0.31262E-02   -0.52146E-03  6016   0.196E+00    0.769E-02
DAV:   6    -0.128040392108E+03   -0.22543E-04   -0.29283E-03  5184   0.522E-01    0.378E-02
DAV:   7    -0.128040476821E+03   -0.84713E-04   -0.11970E-03  4608   0.198E-01    0.231E-02
DAV:   8    -0.128040472002E+03    0.48188E-05   -0.16051E-04  4552   0.110E-01    0.200E-02
DAV:   9    -0.128040465241E+03    0.67614E-05   -0.39582E-05  4192   0.688E-02
  27 F= -.12804047E+03 E0= -.12800127E+03  d E =-.302216E-01
quench:  g(F)=  0.000E+00 g(S)=  0.000E+00 dE (1.order)= 0.000E+00
 bond charge predicted
       N       E                     dE             d eps       ncg     rms          rms(c)
DAV:   1    -0.128040778876E+03   -0.30687E-03   -0.87880E-01  4544   0.199E+00    0.603E-02
DAV:   2    -0.128041167393E+03   -0.38852E-03   -0.47862E-03  4960   0.369E-01    0.531E-02
DAV:   3    -0.128041210853E+03   -0.43460E-04   -0.83029E-04  4624   0.417E-01    0.422E-02
DAV:   4    -0.128041192163E+03    0.18690E-04   -0.21827E-04  4680   0.357E-01    0.268E-02
DAV:   5    -0.128041159977E+03    0.32186E-04   -0.69412E-05  3216   0.225E-01    0.129E-02
DAV:   6    -0.128041157977E+03    0.19998E-05   -0.61650E-05  4592   0.809E-02
  28 F= -.12804116E+03 E0= -.12800177E+03  d E =-.692737E-03
quench:  g(F)=  0.000E+00 g(S)=  0.000E+00 dE (1.order)= 0.000E+00
 bond charge predicted
       N       E                     dE             d eps       ncg     rms          rms(c)
DAV:   1    -0.128040341582E+03    0.81840E-03   -0.64454E-01  4536   0.170E+00    0.509E-02
DAV:   2    -0.128040632729E+03   -0.29115E-03   -0.36130E-03  4608   0.276E-01    0.426E-02
DAV:   3    -0.128040642554E+03   -0.98258E-05   -0.44819E-04  4816   0.239E-01    0.295E-02
DAV:   4    -0.128040633457E+03    0.90973E-05   -0.85699E-05  4840   0.196E-01
  29 F= -.12804063E+03 E0= -.12800110E+03  d E =0.524520E-03
quench:  g(F)=  0.000E+00 g(S)=  0.000E+00 dE (1.order)= 0.000E+00
 bond charge predicted
       N       E                     dE             d eps       ncg     rms          rms(c)
DAV:   1    -0.128041142652E+03   -0.50010E-03   -0.15928E-01  4560   0.899E-01    0.313E-02
DAV:   2    -0.128041288587E+03   -0.14594E-03   -0.69557E-04  5408   0.493E-01    0.478E-02
DAV:   3    -0.128041167982E+03    0.12060E-03   -0.31536E-04  4840   0.418E-01    0.190E-02
DAV:   4    -0.128041175041E+03   -0.70585E-05   -0.17845E-04  4592   0.932E-02    0.138E-02
DAV:   5    -0.128041172495E+03    0.25459E-05   -0.51851E-05  4240   0.758E-02
  30 F= -.12804117E+03 E0= -.12800160E+03  d E =-.539038E-03
quench:  g(F)=  0.000E+00 g(S)=  0.000E+00 dE (1.order)= 0.000E+00
 bond charge predicted
       N       E                     dE             d eps       ncg     rms          rms(c)
DAV:   1    -0.128035740777E+03    0.54343E-02   -0.61740E+00  4464   0.475E+00    0.142E-01
DAV:   2    -0.128039086233E+03   -0.33455E-02   -0.40556E-02  4592   0.749E-01    0.112E-01
DAV:   3    -0.128039189325E+03   -0.10309E-03   -0.39046E-03  4688   0.574E-01    0.754E-02
DAV:   4    -0.128039138376E+03    0.50949E-04   -0.65316E-04  4640   0.457E-01    0.579E-02
DAV:   5    -0.128039144233E+03   -0.58570E-05   -0.37401E-04  4936   0.520E-01    0.529E-02
DAV:   6    -0.128039040439E+03    0.10379E-03   -0.31645E-04  7472   0.386E-01    0.125E-02
DAV:   7    -0.128039037524E+03    0.29158E-05   -0.11866E-04  5720   0.118E-01    0.821E-03
DAV:   8    -0.128039039589E+03   -0.20659E-05   -0.54902E-05  4616   0.570E-02
  31 F= -.12803904E+03 E0= -.12799939E+03  d E =0.213291E-02
quench:  g(F)=  0.000E+00 g(S)=  0.000E+00 dE (1.order)= 0.000E+00
 bond charge predicted
       N       E                     dE             d eps       ncg     rms          rms(c)
DAV:   1    -0.127203168402E+03    0.83587E+00   -0.64943E+02  4464   0.523E+01    0.178E+00
DAV:   2    -0.127810602738E+03   -0.60743E+00   -0.68312E+00  5040   0.164E+01    0.221E+00
DAV:   3    -0.127749835160E+03    0.60768E-01   -0.66418E-01  4904   0.107E+01    0.798E-01
DAV:   4    -0.127756079504E+03   -0.62443E-02   -0.10009E-01  5536   0.540E+00    0.785E-01
DAV:   5    -0.127741650686E+03    0.14429E-01   -0.68620E-02  4832   0.568E+00    0.495E-01
DAV:   6    -0.127737506751E+03    0.41439E-02   -0.50627E-02  5008   0.169E+00    0.220E-01
DAV:   7    -0.127737277874E+03    0.22888E-03   -0.14261E-02  4904   0.139E+00    0.123E-01
DAV:   8    -0.127737177543E+03    0.10033E-03   -0.37831E-03  4712   0.686E-01    0.569E-02
DAV:   9    -0.127737324642E+03   -0.14710E-03   -0.26387E-03  4656   0.310E-01    0.380E-02
DAV:  10    -0.127737320838E+03    0.38041E-05   -0.21264E-04  4808   0.135E-01    0.258E-02
DAV:  11    -0.127737319142E+03    0.16951E-05   -0.77632E-05  4776   0.116E-01
  32 F= -.12773732E+03 E0= -.12770009E+03  d E =0.301720E+00
quench:  g(F)=  0.000E+00 g(S)=  0.000E+00 dE (1.order)= 0.000E+00
 bond charge predicted
       N       E                     dE             d eps       ncg     rms          rms(c)
DAV:   1    -0.127897439711E+03   -0.16012E+00   -0.75787E+01  4464   0.185E+01    0.553E-01
DAV:   2    -0.127929831630E+03   -0.32392E-01   -0.41387E-01  4680   0.287E+00    0.476E-01
DAV:   3    -0.127929113300E+03    0.71833E-03   -0.38576E-02  4720   0.263E+00    0.301E-01
DAV:   4    -0.127929147471E+03   -0.34171E-04   -0.95464E-03  5032   0.245E+00    0.234E-01
DAV:   5    -0.127927406871E+03    0.17406E-02   -0.73983E-03  5080   0.246E+00    0.158E-01
DAV:   6    -0.127926375309E+03    0.10316E-02   -0.40370E-03  7496   0.991E-01    0.341E-02
DAV:   7    -0.127926465733E+03   -0.90424E-04   -0.14278E-03  4880   0.211E-01    0.332E-02
DAV:   8    -0.127926479352E+03   -0.13619E-04   -0.40258E-04  4736   0.148E-01    0.208E-02
DAV:   9    -0.127926467609E+03    0.11744E-04   -0.59677E-05  4704   0.525E-02    0.109E-02
DAV:  10    -0.127926466549E+03    0.10592E-05   -0.19036E-05  2776   0.709E-02
  33 F= -.12792647E+03 E0= -.12788785E+03  d E =-.189147E+00
quench:  g(F)=  0.000E+00 g(S)=  0.000E+00 dE (1.order)= 0.000E+00
 bond charge predicted
       N       E                     dE             d eps       ncg     rms          rms(c)
DAV:   1    -0.127990301095E+03   -0.63833E-01   -0.43524E+01  4464   0.133E+01    0.412E-01
DAV:   2    -0.128012413429E+03   -0.22112E-01   -0.27451E-01  4616   0.200E+00    0.293E-01
DAV:   3    -0.128013022486E+03   -0.60906E-03   -0.20483E-02  4680   0.180E+00    0.217E-01
DAV:   4    -0.128013072338E+03   -0.49852E-04   -0.65901E-03  4864   0.199E+00    0.178E-01
DAV:   5    -0.128012129934E+03    0.94240E-03   -0.30222E-03  5040   0.154E+00    0.112E-01
DAV:   6    -0.128011710549E+03    0.41939E-03   -0.17299E-03  6832   0.641E-01    0.224E-02
DAV:   7    -0.128011778239E+03   -0.67690E-04   -0.85456E-04  4688   0.192E-01    0.291E-02
DAV:   8    -0.128011773260E+03    0.49789E-05   -0.13427E-04  4616   0.115E-01    0.152E-02
DAV:   9    -0.128011767120E+03    0.61397E-05   -0.25156E-05  3368   0.345E-02
  34 F= -.12801177E+03 E0= -.12797231E+03  d E =-.853006E-01
quench:  g(F)=  0.000E+00 g(S)=  0.000E+00 dE (1.order)= 0.000E+00
 bond charge predicted
       N       E                     dE             d eps       ncg     rms          rms(c)
DAV:   1    -0.128020493674E+03   -0.87204E-02   -0.18069E+01  4464   0.815E+00    0.253E-01
DAV:   2    -0.128030415894E+03   -0.99222E-02   -0.12086E-01  4568   0.126E+00    0.177E-01
DAV:   3    -0.128030947523E+03   -0.53163E-03   -0.10817E-02  4680   0.108E+00    0.134E-01
DAV:   4    -0.128030910512E+03    0.37011E-04   -0.27835E-03  4736   0.115E+00    0.109E-01
DAV:   5    -0.128030611011E+03    0.29950E-03   -0.93957E-04  5056   0.837E-01    0.751E-02
DAV:   6    -0.128030471935E+03    0.13908E-03   -0.69755E-04  7064   0.389E-01    0.192E-02
DAV:   7    -0.128030481726E+03   -0.97907E-05   -0.25966E-04  4736   0.165E-01    0.122E-02
DAV:   8    -0.128030482386E+03   -0.66021E-06   -0.82543E-05  4624   0.864E-02
  35 F= -.12803048E+03 E0= -.12799084E+03  d E =-.187153E-01
quench:  g(F)=  0.000E+00 g(S)=  0.000E+00 dE (1.order)= 0.000E+00
 bond charge predicted
       N       E                     dE             d eps       ncg     rms          rms(c)
DAV:   1    -0.128029775920E+03    0.70581E-03   -0.21281E+00  4464   0.281E+00    0.817E-02
DAV:   2    -0.128030905857E+03   -0.11299E-02   -0.13471E-02  4872   0.457E-01    0.693E-02
DAV:   3    -0.128030936717E+03   -0.30861E-04   -0.13498E-03  4776   0.366E-01    0.461E-02
DAV:   4    -0.128030921747E+03    0.14970E-04   -0.23751E-04  4824   0.298E-01    0.353E-02
DAV:   5    -0.128030917799E+03    0.39477E-05   -0.14164E-04  4848   0.323E-01    0.317E-02
DAV:   6    -0.128030880998E+03    0.36801E-04   -0.91258E-05  4288   0.220E-01    0.812E-03
DAV:   7    -0.128030882425E+03   -0.14261E-05   -0.58707E-05  4480   0.733E-02
  36 F= -.12803088E+03 E0= -.12799139E+03  d E =-.400038E-03
quench:  g(F)=  0.000E+00 g(S)=  0.000E+00 dE (1.order)= 0.000E+00
 bond charge predicted
       N       E                     dE             d eps       ncg     rms          rms(c)
DAV:   1    -0.128026790938E+03    0.40901E-02   -0.37804E+00  4464   0.397E+00    0.108E-01
DAV:   2    -0.128028406745E+03   -0.16158E-02   -0.19367E-02  4712   0.526E-01    0.867E-02
DAV:   3    -0.128028430143E+03   -0.23398E-04   -0.16577E-03  4808   0.513E-01    0.693E-02
DAV:   4    -0.128028389001E+03    0.41142E-04   -0.49352E-04  4864   0.540E-01    0.510E-02
DAV:   5    -0.128028318246E+03    0.70754E-04   -0.25910E-04  5208   0.450E-01    0.349E-02
DAV:   6    -0.128028276258E+03    0.41988E-04   -0.22571E-04  6536   0.232E-01    0.841E-03
DAV:   7    -0.128028280312E+03   -0.40536E-05   -0.76003E-05  4608   0.730E-02
  37 F= -.12802828E+03 E0= -.12798907E+03  d E =0.260211E-02
quench:  g(F)=  0.000E+00 g(S)=  0.000E+00 dE (1.order)= 0.000E+00
 bond charge predicted
       N       E                     dE             d eps       ncg     rms          rms(c)
DAV:   1    -0.128012684994E+03    0.15591E-01   -0.15419E+01  4464   0.796E+00    0.210E-01
DAV:   2    -0.128018573434E+03   -0.58884E-02   -0.72315E-02  4728   0.907E-01    0.165E-01
DAV:   3    -0.128018409844E+03    0.16359E-03   -0.48103E-03  4800   0.793E-01    0.125E-01
DAV:   4    -0.128018331414E+03    0.78430E-04   -0.15225E-03  4784   0.968E-01    0.102E-01
DAV:   5    -0.128018064080E+03    0.26733E-03   -0.12083E-03  5928   0.949E-01    0.716E-02
DAV:   6    -0.128017851934E+03    0.21215E-03   -0.98437E-04  7816   0.496E-01    0.152E-02
DAV:   7    -0.128017866934E+03   -0.15000E-04   -0.25368E-04  5392   0.111E-01    0.119E-02
DAV:   8    -0.128017867977E+03   -0.10424E-05   -0.54193E-05  4616   0.543E-02
  38 F= -.12801787E+03 E0= -.12797896E+03  d E =0.104123E-01
quench:  g(F)=  0.000E+00 g(S)=  0.000E+00 dE (1.order)= 0.000E+00
 bond charge predicted
       N       E                     dE             d eps       ncg     rms          rms(c)
DAV:   1    -0.127653734555E+03    0.36413E+00   -0.34321E+02  4464   0.381E+01    0.113E+00
DAV:   2    -0.127886261750E+03   -0.23253E+00   -0.26632E+00  5128   0.857E+00    0.133E+00
DAV:   3    -0.127872485570E+03    0.13776E-01   -0.26552E-01  4792   0.595E+00    0.603E-01
DAV:   4    -0.127867140196E+03    0.53454E-02   -0.37155E-02  4680   0.162E+00    0.436E-01
DAV:   5    -0.127863676199E+03    0.34640E-02   -0.21338E-02  5056   0.175E+00    0.210E-01
DAV:   6    -0.127865697346E+03   -0.20211E-02   -0.12889E-02  4888   0.282E+00    0.214E-01
DAV:   7    -0.127862898856E+03    0.27985E-02   -0.54209E-03  7344   0.188E+00    0.542E-02
DAV:   8    -0.127862948194E+03   -0.49338E-04   -0.19822E-03  4864   0.370E-01    0.459E-02
DAV:   9    -0.127862977690E+03   -0.29496E-04   -0.80863E-04  4728   0.192E-01    0.297E-02
DAV:  10    -0.127862969848E+03    0.78422E-05   -0.60163E-05  4480   0.741E-02
  39 F= -.12786297E+03 E0= -.12782207E+03  d E =0.154898E+00
quench:  g(F)=  0.000E+00 g(S)=  0.000E+00 dE (1.order)= 0.000E+00
 bond charge predicted
       N       E                     dE             d eps       ncg     rms          rms(c)
DAV:   1    -0.127928997603E+03   -0.66020E-01   -0.88764E+01  4464   0.198E+01    0.598E-01
DAV:   2    -0.127968463928E+03   -0.39466E-01   -0.49072E-01  4928   0.360E+00    0.550E-01
DAV:   3    -0.127970069311E+03   -0.16054E-02   -0.72430E-02  4768   0.385E+00    0.378E-01
DAV:   4    -0.127969059368E+03    0.10099E-02   -0.17522E-02  4888   0.324E+00    0.283E-01
DAV:   5    -0.127966152433E+03    0.29069E-02   -0.77965E-03  5104   0.230E+00    0.157E-01
DAV:   6    -0.127965661302E+03    0.49113E-03   -0.67631E-03  6144   0.895E-01    0.474E-02
DAV:   7    -0.127965824132E+03   -0.16283E-03   -0.25680E-03  4696   0.390E-01    0.416E-02
DAV:   8    -0.127965842513E+03   -0.18381E-04   -0.58028E-04  4792   0.195E-01    0.299E-02
DAV:   9    -0.127965825728E+03    0.16785E-04   -0.13714E-04  4560   0.117E-01    0.113E-02
DAV:  10    -0.127965824315E+03    0.14130E-05   -0.21291E-05  3144   0.467E-02
  40 F= -.12796582E+03 E0= -.12792646E+03  d E =-.102854E+00
quench:  g(F)=  0.000E+00 g(S)=  0.000E+00 dE (1.order)= 0.000E+00
 bond charge predicted
       N       E                     dE             d eps       ncg     rms          rms(c)
DAV:   1    -0.127971452441E+03   -0.56267E-02   -0.36024E+01  4464   0.120E+01    0.370E-01
DAV:   2    -0.127990544538E+03   -0.19092E-01   -0.23175E-01  4776   0.215E+00    0.313E-01
DAV:   3    -0.127991818044E+03   -0.12735E-02   -0.29935E-02  4768   0.226E+00    0.235E-01
DAV:   4    -0.127991259230E+03    0.55881E-03   -0.72191E-03  4832   0.192E+00    0.164E-01
DAV:   5    -0.127990552544E+03    0.70669E-03   -0.25251E-03  5016   0.128E+00    0.114E-01
DAV:   6    -0.127990268388E+03    0.28416E-03   -0.22198E-03  6440   0.586E-01    0.288E-02
DAV:   7    -0.127990317757E+03   -0.49369E-04   -0.86785E-04  4728   0.269E-01    0.218E-02
DAV:   8    -0.127990327758E+03   -0.10001E-04   -0.23826E-04  4600   0.123E-01    0.174E-02
DAV:   9    -0.127990321529E+03    0.62288E-05   -0.44441E-05  4512   0.703E-02
  41 F= -.12799032E+03 E0= -.12795158E+03  d E =-.244972E-01
quench:  g(F)=  0.000E+00 g(S)=  0.000E+00 dE (1.order)= 0.000E+00
 bond charge predicted
       N       E                     dE             d eps       ncg     rms          rms(c)
DAV:   1    -0.127996128916E+03   -0.58012E-02   -0.33069E+00  4464   0.395E+00    0.107E-01
DAV:   2    -0.127996570117E+03   -0.44120E-03   -0.79851E-03  4568   0.349E-01    0.791E-02
DAV:   3    -0.127996403798E+03    0.16632E-03   -0.66401E-04  5136   0.334E-01    0.577E-02
DAV:   4    -0.127996321691E+03    0.82107E-04   -0.34039E-04  5744   0.320E-01    0.118E-02
DAV:   5    -0.127996349783E+03   -0.28092E-04   -0.13613E-04  5648   0.250E-01    0.211E-02
DAV:   6    -0.127996320085E+03    0.29698E-04   -0.40895E-05  2744   0.173E-01    0.489E-03
DAV:   7    -0.127996321494E+03   -0.14085E-05   -0.23607E-05  2816   0.222E-02
  42 F= -.12799632E+03 E0= -.12795749E+03  d E =-.599996E-02
quench:  g(F)=  0.000E+00 g(S)=  0.000E+00 dE (1.order)= 0.000E+00
 bond charge predicted
       N       E                     dE             d eps       ncg     rms          rms(c)
DAV:   1    -0.128001709181E+03   -0.53891E-02   -0.33539E+00  4464   0.399E+00    0.108E-01
DAV:   2    -0.128002235202E+03   -0.52602E-03   -0.87126E-03  4768   0.389E-01    0.826E-02
DAV:   3    -0.128002108636E+03    0.12657E-03   -0.84702E-04  4888   0.387E-01    0.649E-02
DAV:   4    -0.128002009657E+03    0.98979E-04   -0.38949E-04  5560   0.371E-01    0.289E-02
DAV:   5    -0.128002033165E+03   -0.23508E-04   -0.23535E-04  5624   0.393E-01    0.217E-02
DAV:   6    -0.128001990226E+03    0.42939E-04   -0.69726E-05  2904   0.235E-01    0.778E-03
DAV:   7    -0.128001992095E+03   -0.18687E-05   -0.47256E-05  3976   0.515E-02
  43 F= -.12800199E+03 E0= -.12796304E+03  d E =-.567060E-02
quench:  g(F)=  0.000E+00 g(S)=  0.000E+00 dE (1.order)= 0.000E+00
 bond charge predicted
       N       E                     dE             d eps       ncg     rms          rms(c)
DAV:   1    -0.128002341619E+03   -0.35139E-03   -0.97226E-02  4496   0.674E-01    0.191E-02
DAV:   2    -0.128002372469E+03   -0.30850E-04   -0.38026E-04  4688   0.108E-01    0.175E-02
DAV:   3    -0.128002375346E+03   -0.28769E-05   -0.71350E-05  4696   0.133E-01
  44 F= -.12800238E+03 E0= -.12796338E+03  d E =-.383251E-03
quench:  g(F)=  0.000E+00 g(S)=  0.000E+00 dE (1.order)= 0.000E+00
 bond charge predicted
       N       E                     dE             d eps       ncg     rms          rms(c)
DAV:   1    -0.127985767594E+03    0.16605E-01   -0.20568E+01  4464   0.967E+00    0.273E-01
DAV:   2    -0.127992576295E+03   -0.68087E-02   -0.86828E-02  4544   0.142E+00    0.249E-01
DAV:   3    -0.127992313077E+03    0.26322E-03   -0.10633E-02  4728   0.115E+00    0.160E-01
DAV:   4    -0.127991558557E+03    0.75452E-03   -0.15974E-03  5144   0.554E-01    0.638E-02
DAV:   5    -0.127991544173E+03    0.14383E-04   -0.90390E-04  6424   0.350E-01    0.330E-02
DAV:   6    -0.127991551585E+03   -0.74122E-05   -0.36834E-04  4728   0.433E-01    0.283E-02
DAV:   7    -0.127991512347E+03    0.39238E-04   -0.82001E-05  4552   0.224E-01    0.120E-02
DAV:   8    -0.127991513466E+03   -0.11195E-05   -0.53612E-05  4480   0.608E-02
  45 F= -.12799151E+03 E0= -.12795231E+03  d E =0.108619E-01
quench:  g(F)=  0.000E+00 g(S)=  0.000E+00 dE (1.order)= 0.000E+00
 bond charge predicted
       N       E                     dE             d eps       ncg     rms          rms(c)
DAV:   1    -0.127990372292E+03    0.11401E-02   -0.65256E+00  4464   0.558E+00    0.158E-01
DAV:   2    -0.127991671961E+03   -0.12997E-02   -0.19121E-02  4632   0.778E-01    0.137E-01
DAV:   3    -0.127991827625E+03   -0.15566E-03   -0.42213E-03  4800   0.109E+00    0.119E-01
DAV:   4    -0.127991645929E+03    0.18170E-03   -0.15394E-03  4984   0.103E+00    0.840E-02
DAV:   5    -0.127991327119E+03    0.31881E-03   -0.85607E-04  8144   0.626E-01    0.290E-02
DAV:   6    -0.127991322765E+03    0.43548E-05   -0.26100E-04  5576   0.160E-01    0.103E-02
DAV:   7    -0.127991331472E+03   -0.87071E-05   -0.12079E-04  4592   0.608E-02    0.110E-02
DAV:   8    -0.127991331568E+03   -0.96406E-07   -0.82062E-06  2616   0.164E-02
  46 F= -.12799133E+03 E0= -.12795236E+03  d E =0.181898E-03
quench:  g(F)=  0.000E+00 g(S)=  0.000E+00 dE (1.order)= 0.000E+00
 bond charge predicted
       N       E                     dE             d eps       ncg     rms          rms(c)
DAV:   1    -0.127987176024E+03    0.41554E-02   -0.24754E+00  4464   0.331E+00    0.856E-02
DAV:   2    -0.127987809839E+03   -0.63382E-03   -0.84026E-03  4792   0.339E-01    0.687E-02
DAV:   3    -0.127987762803E+03    0.47036E-04   -0.66843E-04  4960   0.356E-01    0.550E-02
DAV:   4    -0.127987729933E+03    0.32869E-04   -0.26467E-04  5112   0.419E-01    0.365E-02
DAV:   5    -0.127987694363E+03    0.35570E-04   -0.26130E-04  6048   0.432E-01    0.244E-02
DAV:   6    -0.127987660198E+03    0.34165E-04   -0.14154E-04  6272   0.197E-01    0.635E-03
DAV:   7    -0.127987662203E+03   -0.20050E-05   -0.38782E-05  4016   0.292E-02
  47 F= -.12798766E+03 E0= -.12794877E+03  d E =0.366937E-02
quench:  g(F)=  0.000E+00 g(S)=  0.000E+00 dE (1.order)= 0.000E+00
 bond charge predicted
       N       E                     dE             d eps       ncg     rms          rms(c)
DAV:   1    -0.127911633492E+03    0.76027E-01   -0.19005E+02  4464   0.298E+01    0.817E-01
DAV:   2    -0.127961384497E+03   -0.49751E-01   -0.69558E-01  5008   0.414E+00    0.761E-01
DAV:   3    -0.127956504804E+03    0.48797E-02   -0.71808E-02  4888   0.449E+00    0.491E-01
DAV:   4    -0.127955715071E+03    0.78973E-03   -0.26414E-02  5832   0.435E+00    0.408E-01
DAV:   5    -0.127946126671E+03    0.95884E-02   -0.24577E-02  7400   0.353E+00    0.181E-01
DAV:   6    -0.127946080625E+03    0.46046E-04   -0.14028E-02  6088   0.122E+00    0.101E-01
DAV:   7    -0.127946085143E+03   -0.45183E-05   -0.34898E-03  4800   0.471E-01    0.535E-02
DAV:   8    -0.127946082438E+03    0.27056E-05   -0.12745E-03  4640   0.229E-01    0.382E-02
DAV:   9    -0.127946070282E+03    0.12156E-04   -0.22387E-04  4704   0.173E-01    0.233E-02
DAV:  10    -0.127946063852E+03    0.64297E-05   -0.53785E-05  4224   0.118E-01
  48 F= -.12794606E+03 E0= -.12790752E+03  d E =0.415984E-01
quench:  g(F)=  0.000E+00 g(S)=  0.000E+00 dE (1.order)= 0.000E+00
 bond charge predicted
       N       E                     dE             d eps       ncg     rms          rms(c)
DAV:   1    -0.127879693363E+03    0.66377E-01   -0.15773E+02  4464   0.278E+01    0.799E-01
DAV:   2    -0.127909841495E+03   -0.30148E-01   -0.48384E-01  4704   0.436E+00    0.770E-01
DAV:   3    -0.127905499428E+03    0.43421E-02   -0.78483E-02  4816   0.441E+00    0.467E-01
DAV:   4    -0.127912198329E+03   -0.66989E-02   -0.35709E-02  5824   0.502E+00    0.455E-01
DAV:   5    -0.127896234874E+03    0.15963E-01   -0.28079E-02  7208   0.399E+00    0.163E-01
DAV:   6    -0.127896991553E+03   -0.75668E-03   -0.13572E-02  4728   0.705E-01    0.132E-01
DAV:   7    -0.127896780375E+03    0.21118E-03   -0.15791E-03  4720   0.318E-01    0.705E-02
DAV:   8    -0.127896687304E+03    0.93071E-04   -0.40260E-04  4784   0.111E-01    0.424E-02
DAV:   9    -0.127896661795E+03    0.25508E-04   -0.12804E-04  4824   0.141E-01    0.286E-02
DAV:  10    -0.127896643258E+03    0.18538E-04   -0.30012E-05  3600   0.100E-01    0.118E-02
DAV:  11    -0.127896643595E+03   -0.33704E-06   -0.56362E-05  4584   0.331E-02
  49 F= -.12789664E+03 E0= -.12785785E+03  d E =0.494203E-01
quench:  g(F)=  0.000E+00 g(S)=  0.000E+00 dE (1.order)= 0.000E+00
 bond charge predicted
       N       E                     dE             d eps       ncg     rms          rms(c)
DAV:   1    -0.127912939829E+03   -0.16297E-01   -0.18854E+01  4464   0.936E+00    0.279E-01
DAV:   2    -0.127920067544E+03   -0.71277E-02   -0.90550E-02  4632   0.150E+00    0.241E-01
DAV:   3    -0.127920017611E+03    0.49932E-04   -0.12040E-02  4736   0.130E+00    0.164E-01
DAV:   4    -0.127919721315E+03    0.29630E-03   -0.18442E-03  4784   0.948E-01    0.901E-02
DAV:   5    -0.127919729283E+03   -0.79674E-05   -0.21416E-03  5016   0.126E+00    0.917E-02
DAV:   6    -0.127919300291E+03    0.42899E-03   -0.96098E-04  7000   0.669E-01    0.117E-02
DAV:   7    -0.127919337598E+03   -0.37307E-04   -0.44548E-04  4696   0.923E-02    0.145E-02
DAV:   8    -0.127919339718E+03   -0.21200E-05   -0.51024E-05  4368   0.397E-02
  50 F= -.12791934E+03 E0= -.12788097E+03  d E =-.226961E-01
quench:  g(F)=  0.000E+00 g(S)=  0.000E+00 dE (1.order)= 0.000E+00
 bond charge predicted
       N       E                     dE             d eps       ncg     rms          rms(c)
DAV:   1    -0.127913508958E+03    0.58286E-02   -0.50632E+00  4464   0.491E+00    0.136E-01
DAV:   2    -0.127913965581E+03   -0.45662E-03   -0.10496E-02  4504   0.430E-01    0.102E-01
DAV:   3    -0.127913771723E+03    0.19386E-03   -0.14197E-03  5048   0.579E-01    0.901E-02
DAV:   4    -0.127913655924E+03    0.11580E-03   -0.81484E-04  5880   0.647E-01    0.489E-02
DAV:   5    -0.127913576505E+03    0.79420E-04   -0.46318E-04  7312   0.497E-01    0.209E-02
DAV:   6    -0.127913553321E+03    0.23184E-04   -0.91607E-05  5056   0.150E-01    0.974E-03
DAV:   7    -0.127913556054E+03   -0.27329E-05   -0.59875E-05  4560   0.452E-02
  51 F= -.12791356E+03 E0= -.12787514E+03  d E =0.578366E-02
quench:  g(F)=  0.000E+00 g(S)=  0.000E+00 dE (1.order)= 0.000E+00
 bond charge predicted
       N       E                     dE             d eps       ncg     rms          rms(c)
DAV:   1    -0.127895723923E+03    0.17829E-01   -0.38084E+01  4464   0.135E+01    0.372E-01
DAV:   2    -0.127899847276E+03   -0.41234E-02   -0.84579E-02  4568   0.136E+00    0.303E-01
DAV:   3    -0.127898504761E+03    0.13425E-02   -0.11509E-02  4816   0.155E+00    0.228E-01
DAV:   4    -0.127898026736E+03    0.47803E-03   -0.62472E-03  8168   0.156E+00    0.114E-01
DAV:   5    -0.127897100629E+03    0.92611E-03   -0.36827E-03  6520   0.154E+00    0.995E-02
DAV:   6    -0.127896796969E+03    0.30366E-03   -0.90005E-04  5272   0.571E-01    0.402E-02
DAV:   7    -0.127896801054E+03   -0.40856E-05   -0.50249E-04  4664   0.132E-01    0.162E-02
DAV:   8    -0.127896802447E+03   -0.13929E-05   -0.95250E-05  4560   0.718E-02
  52 F= -.12789680E+03 E0= -.12785835E+03  d E =0.167536E-01
quench:  g(F)=  0.000E+00 g(S)=  0.000E+00 dE (1.order)= 0.000E+00
 bond charge predicted
       N       E                     dE             d eps       ncg     rms          rms(c)
DAV:   1    -0.127881509519E+03    0.15292E-01   -0.26348E+01  4464   0.112E+01    0.308E-01
DAV:   2    -0.127884055852E+03   -0.25463E-02   -0.55508E-02  4520   0.109E+00    0.246E-01
DAV:   3    -0.127883279714E+03    0.77614E-03   -0.79964E-03  4872   0.143E+00    0.198E-01
DAV:   4    -0.127883440505E+03   -0.16079E-03   -0.54779E-03  8056   0.177E+00    0.130E-01
DAV:   5    -0.127882063433E+03    0.13771E-02   -0.32205E-03  8008   0.138E+00    0.625E-02
DAV:   6    -0.127881989666E+03    0.73767E-04   -0.69061E-04  5880   0.315E-01    0.289E-02
DAV:   7    -0.127881990713E+03   -0.10471E-05   -0.24509E-04  4752   0.885E-02    0.139E-02
DAV:   8    -0.127881988994E+03    0.17191E-05   -0.39700E-05  4016   0.524E-02
  53 F= -.12788199E+03 E0= -.12784354E+03  d E =0.148135E-01
quench:  g(F)=  0.000E+00 g(S)=  0.000E+00 dE (1.order)= 0.000E+00
 bond charge predicted
       N       E                     dE             d eps       ncg     rms          rms(c)
DAV:   1    -0.127851257557E+03    0.30733E-01   -0.10082E+02  4464   0.221E+01    0.619E-01
DAV:   2    -0.127862582694E+03   -0.11325E-01   -0.23302E-01  4576   0.268E+00    0.542E-01
DAV:   3    -0.127859944183E+03    0.26385E-02   -0.36708E-02  4856   0.323E+00    0.379E-01
DAV:   4    -0.127862911474E+03   -0.29673E-02   -0.23346E-02  7256   0.397E+00    0.313E-01
DAV:   5    -0.127854116291E+03    0.87952E-02   -0.18228E-02  8432   0.300E+00    0.139E-01
DAV:   6    -0.127854160395E+03   -0.44104E-04   -0.54263E-03  5120   0.572E-01    0.913E-02
DAV:   7    -0.127854079679E+03    0.80716E-04   -0.10941E-03  4760   0.222E-01    0.502E-02
DAV:   8    -0.127854022167E+03    0.57512E-04   -0.25508E-04  4600   0.701E-02    0.287E-02
DAV:   9    -0.127854010357E+03    0.11810E-04   -0.58294E-05  4728   0.109E-01    0.189E-02
DAV:  10    -0.127854002944E+03    0.74127E-05   -0.16732E-05  2776   0.733E-02
  54 F= -.12785400E+03 E0= -.12781559E+03  d E =0.279860E-01
quench:  g(F)=  0.000E+00 g(S)=  0.000E+00 dE (1.order)= 0.000E+00
 bond charge predicted
       N       E                     dE             d eps       ncg     rms          rms(c)
DAV:   1    -0.127843511744E+03    0.10499E-01   -0.40150E+01  4512   0.138E+01    0.397E-01
DAV:   2    -0.127855518467E+03   -0.12007E-01   -0.15626E-01  4768   0.259E+00    0.419E-01
DAV:   3    -0.127854779793E+03    0.73867E-03   -0.26866E-02  4792   0.228E+00    0.230E-01
DAV:   4    -0.127856491131E+03   -0.17113E-02   -0.91556E-03  5024   0.246E+00    0.242E-01
DAV:   5    -0.127852838230E+03    0.36529E-02   -0.59695E-03  5448   0.198E+00    0.579E-02
DAV:   6    -0.127853078499E+03   -0.24027E-03   -0.34312E-03  5288   0.370E-01    0.515E-02
DAV:   7    -0.127853079172E+03   -0.67326E-06   -0.63378E-04  4664   0.206E-01    0.288E-02
DAV:   8    -0.127853069228E+03    0.99437E-05   -0.11420E-04  4520   0.872E-02    0.189E-02
DAV:   9    -0.127853063899E+03    0.53292E-05   -0.29398E-05  3200   0.431E-02
  55 F= -.12785306E+03 E0= -.12781480E+03  d E =0.939045E-03
quench:  g(F)=  0.000E+00 g(S)=  0.000E+00 dE (1.order)= 0.000E+00
 bond charge predicted
       N       E                     dE             d eps       ncg     rms          rms(c)
DAV:   1    -0.127829396321E+03    0.23673E-01   -0.10821E+02  4464   0.229E+01    0.652E-01
DAV:   2    -0.127846081290E+03   -0.16685E-01   -0.29591E-01  4600   0.308E+00    0.596E-01
DAV:   3    -0.127842492749E+03    0.35885E-02   -0.45376E-02  4736   0.314E+00    0.379E-01
DAV:   4    -0.127846772634E+03   -0.42799E-02   -0.24264E-02  7600   0.380E+00    0.337E-01
DAV:   5    -0.127836945007E+03    0.98276E-02   -0.18707E-02  6928   0.339E+00    0.146E-01
DAV:   6    -0.127837006748E+03   -0.61741E-04   -0.62582E-03  6008   0.680E-01    0.876E-02
DAV:   7    -0.127836929043E+03    0.77705E-04   -0.13258E-03  4896   0.242E-01    0.402E-02
DAV:   8    -0.127836904754E+03    0.24290E-04   -0.31300E-04  4696   0.117E-01    0.262E-02
DAV:   9    -0.127836899347E+03    0.54068E-05   -0.92673E-05  4800   0.111E-01
  56 F= -.12783690E+03 E0= -.12779842E+03  d E =0.161646E-01
quench:  g(F)=  0.000E+00 g(S)=  0.000E+00 dE (1.order)= 0.000E+00
 bond charge predicted
       N       E                     dE             d eps       ncg     rms          rms(c)
DAV:   1    -0.127834897310E+03    0.20074E-02   -0.11255E+00  4464   0.232E+00    0.622E-02
DAV:   2    -0.127835049342E+03   -0.15203E-03   -0.26357E-03  4560   0.229E-01    0.471E-02
DAV:   3    -0.127835048363E+03    0.97912E-06   -0.35196E-04  4872   0.357E-01    0.472E-02
DAV:   4    -0.127835006704E+03    0.41659E-04   -0.25041E-04  5424   0.416E-01    0.231E-02
DAV:   5    -0.127834968394E+03    0.38310E-04   -0.71905E-05  3192   0.214E-01    0.113E-02
DAV:   6    -0.127834972869E+03   -0.44743E-05   -0.79289E-05  4456   0.506E-02
  57 F= -.12783497E+03 E0= -.12779653E+03  d E =0.192648E-02
quench:  g(F)=  0.000E+00 g(S)=  0.000E+00 dE (1.order)= 0.000E+00
 bond charge predicted
       N       E                     dE             d eps       ncg     rms          rms(c)
DAV:   1    -0.127829148216E+03    0.58202E-02   -0.66611E+00  4464   0.564E+00    0.151E-01
DAV:   2    -0.127829943044E+03   -0.79483E-03   -0.14931E-02  4736   0.524E-01    0.114E-01
DAV:   3    -0.127829703426E+03    0.23962E-03   -0.17008E-03  4976   0.645E-01    0.971E-02
DAV:   4    -0.127829595672E+03    0.10775E-03   -0.10673E-03  7184   0.697E-01    0.458E-02
DAV:   5    -0.127829487810E+03    0.10786E-03   -0.53354E-04  7032   0.538E-01    0.301E-02
DAV:   6    -0.127829453187E+03    0.34623E-04   -0.11702E-04  4872   0.188E-01    0.116E-02
DAV:   7    -0.127829456483E+03   -0.32965E-05   -0.70955E-05  4616   0.467E-02
  58 F= -.12782946E+03 E0= -.12779110E+03  d E =0.551639E-02
quench:  g(F)=  0.000E+00 g(S)=  0.000E+00 dE (1.order)= 0.000E+00
 bond charge predicted
       N       E                     dE             d eps       ncg     rms          rms(c)
DAV:   1    -0.127827711001E+03    0.17422E-02   -0.56440E-01  4544   0.164E+00    0.441E-02
DAV:   2    -0.127827781603E+03   -0.70602E-04   -0.12914E-03  4704   0.149E-01    0.326E-02
DAV:   3    -0.127827757040E+03    0.24563E-04   -0.12985E-04  4952   0.157E-01    0.258E-02
DAV:   4    -0.127827742521E+03    0.14519E-04   -0.58231E-05  4648   0.146E-01    0.594E-03
DAV:   5    -0.127827747312E+03   -0.47916E-05   -0.27505E-05  2752   0.132E-01
  59 F= -.12782775E+03 E0= -.12778938E+03  d E =0.170917E-02
quench:  g(F)=  0.000E+00 g(S)=  0.000E+00 dE (1.order)= 0.000E+00
 bond charge predicted
       N       E                     dE             d eps       ncg     rms          rms(c)
DAV:   1    -0.127826201914E+03    0.15406E-02   -0.42515E-01  4512   0.143E+00    0.369E-02
DAV:   2    -0.127826251441E+03   -0.49527E-04   -0.90702E-04  4568   0.132E-01    0.286E-02
DAV:   3    -0.127826250786E+03    0.65495E-06   -0.13719E-04  4832   0.212E-01    0.286E-02
DAV:   4    -0.127826236698E+03    0.14088E-04   -0.88732E-05  4112   0.245E-01    0.172E-02
DAV:   5    -0.127826220894E+03    0.15804E-04   -0.30756E-05  2728   0.145E-01    0.692E-03
DAV:   6    -0.127826221284E+03   -0.38966E-06   -0.20372E-05  2696   0.367E-02
  60 F= -.12782622E+03 E0= -.12778786E+03  d E =0.152603E-02
quench:  g(F)=  0.000E+00 g(S)=  0.000E+00 dE (1.order)= 0.000E+00
 bond charge predicted
       N       E                     dE             d eps       ncg     rms          rms(c)
DAV:   1    -0.127823600942E+03    0.26200E-02   -0.12036E+00  4464   0.239E+00    0.621E-02
DAV:   2    -0.127823745651E+03   -0.14471E-03   -0.26436E-03  4552   0.225E-01    0.481E-02
DAV:   3    -0.127823712752E+03    0.32898E-04   -0.34481E-04  4904   0.260E-01    0.410E-02
DAV:   4    -0.127823681788E+03    0.30965E-04   -0.15092E-04  5632   0.263E-01    0.202E-02
DAV:   5    -0.127823671182E+03    0.10605E-04   -0.97266E-05  3832   0.244E-01    0.118E-02
DAV:   6    -0.127823662543E+03    0.86392E-05   -0.24350E-05  2792   0.101E-01
  61 F= -.12782366E+03 E0= -.12778528E+03  d E =0.255874E-02
quench:  g(F)=  0.000E+00 g(S)=  0.000E+00 dE (1.order)= 0.000E+00
 bond charge predicted
       N       E                     dE             d eps       ncg     rms          rms(c)
DAV:   1    -0.127814345147E+03    0.93260E-02   -0.12068E+01  4464   0.757E+00    0.202E-01
DAV:   2    -0.127815625940E+03   -0.12808E-02   -0.25732E-02  4608   0.701E-01    0.159E-01
DAV:   3    -0.127815195951E+03    0.42999E-03   -0.34940E-03  4680   0.769E-01    0.127E-01
DAV:   4    -0.127814759143E+03    0.43681E-03   -0.16992E-03  6568   0.506E-01    0.357E-02
DAV:   5    -0.127814746230E+03    0.12914E-04   -0.27115E-04  6240   0.142E-01    0.253E-02
DAV:   6    -0.127814746566E+03   -0.33589E-06   -0.12407E-04  4776   0.235E-01    0.197E-02
DAV:   7    -0.127814729721E+03    0.16845E-04   -0.28456E-05  2912   0.111E-01    0.782E-03
DAV:   8    -0.127814730747E+03   -0.10257E-05   -0.30154E-05  3136   0.372E-02
  62 F= -.12781473E+03 E0= -.12777628E+03  d E =0.893180E-02
quench:  g(F)=  0.000E+00 g(S)=  0.000E+00 dE (1.order)= 0.000E+00
 bond charge predicted
       N       E                     dE             d eps       ncg     rms          rms(c)
DAV:   1    -0.127797316800E+03    0.17413E-01   -0.45248E+01  4464   0.147E+01    0.404E-01
DAV:   2    -0.127802887165E+03   -0.55704E-02   -0.10705E-01  4584   0.155E+00    0.336E-01
DAV:   3    -0.127801626684E+03    0.12605E-02   -0.14100E-02  4880   0.193E+00    0.253E-01
DAV:   4    -0.127802360424E+03   -0.73374E-03   -0.10054E-02  7728   0.246E+00    0.188E-01
DAV:   5    -0.127799338785E+03    0.30216E-02   -0.71609E-03  8424   0.197E+00    0.817E-02
DAV:   6    -0.127799256156E+03    0.82629E-04   -0.15692E-03  6288   0.441E-01    0.404E-02
DAV:   7    -0.127799252141E+03    0.40149E-05   -0.46649E-04  4616   0.140E-01    0.179E-02
DAV:   8    -0.127799251912E+03    0.22830E-06   -0.11157E-04  4656   0.729E-02    0.141E-02
DAV:   9    -0.127799249414E+03    0.24988E-05   -0.21752E-05  2664   0.602E-02
  63 F= -.12779925E+03 E0= -.12776050E+03  d E =0.154813E-01
quench:  g(F)=  0.000E+00 g(S)=  0.000E+00 dE (1.order)= 0.000E+00
 bond charge predicted
       N       E                     dE             d eps       ncg     rms          rms(c)
DAV:   1    -0.127793716802E+03    0.55351E-02   -0.90215E+00  4496   0.651E+00    0.188E-01
DAV:   2    -0.127796081782E+03   -0.23650E-02   -0.32242E-02  4744   0.881E-01    0.158E-01
DAV:   3    -0.127796161762E+03   -0.79980E-04   -0.51452E-03  4688   0.108E+00    0.133E-01
DAV:   4    -0.127796122123E+03    0.39640E-04   -0.21224E-03  5008   0.118E+00    0.975E-02
DAV:   5    -0.127795602986E+03    0.51914E-03   -0.12940E-03  8368   0.853E-01    0.270E-02
DAV:   6    -0.127795595145E+03    0.78408E-05   -0.37706E-04  6776   0.213E-01    0.113E-02
DAV:   7    -0.127795603058E+03   -0.79122E-05   -0.13866E-04  4696   0.665E-02    0.110E-02
DAV:   8    -0.127795602337E+03    0.72049E-06   -0.14784E-05  2648   0.274E-02
  64 F= -.12779560E+03 E0= -.12775718E+03  d E =0.364708E-02
quench:  g(F)=  0.000E+00 g(S)=  0.000E+00 dE (1.order)= 0.000E+00
 bond charge predicted
       N       E                     dE             d eps       ncg     rms          rms(c)
DAV:   1    -0.127805466687E+03   -0.98636E-02   -0.22609E+01  4464   0.104E+01    0.285E-01
DAV:   2    -0.127808103101E+03   -0.26364E-02   -0.51929E-02  4528   0.102E+00    0.228E-01
DAV:   3    -0.127807362494E+03    0.74061E-03   -0.61617E-03  4792   0.124E+00    0.176E-01
DAV:   4    -0.127807645229E+03   -0.28274E-03   -0.46728E-03  8008   0.168E+00    0.115E-01
DAV:   5    -0.127806382155E+03    0.12631E-02   -0.32896E-03  8552   0.133E+00    0.600E-02
DAV:   6    -0.127806304710E+03    0.77445E-04   -0.59868E-04  6296   0.335E-01    0.281E-02
DAV:   7    -0.127806303100E+03    0.16100E-05   -0.24300E-04  4616   0.107E-01    0.115E-02
DAV:   8    -0.127806302767E+03    0.33311E-06   -0.45735E-05  4416   0.469E-02
  65 F= -.12780630E+03 E0= -.12776788E+03  d E =-.107004E-01
quench:  g(F)=  0.000E+00 g(S)=  0.000E+00 dE (1.order)= 0.000E+00
 bond charge predicted
       N       E                     dE             d eps       ncg     rms          rms(c)
DAV:   1    -0.127802646672E+03    0.36564E-02   -0.43028E+00  4552   0.454E+00    0.136E-01
DAV:   2    -0.127803899533E+03   -0.12529E-02   -0.16619E-02  4528   0.674E-01    0.117E-01
DAV:   3    -0.127803907989E+03   -0.84555E-05   -0.27503E-03  4744   0.673E-01    0.912E-02
DAV:   4    -0.127803945264E+03   -0.37275E-04   -0.97658E-04  5064   0.755E-01    0.819E-02
DAV:   5    -0.127803699263E+03    0.24600E-03   -0.62862E-04  7024   0.649E-01    0.273E-02
DAV:   6    -0.127803678929E+03    0.20334E-04   -0.16901E-04  6752   0.142E-01    0.184E-02
DAV:   7    -0.127803677645E+03    0.12843E-05   -0.79505E-05  4704   0.793E-02
  66 F= -.12780368E+03 E0= -.12776485E+03  d E =0.262512E-02
quench:  g(F)=  0.000E+00 g(S)=  0.000E+00 dE (1.order)= 0.000E+00
 bond charge predicted
       N       E                     dE             d eps       ncg     rms          rms(c)
DAV:   1    -0.127805405880E+03   -0.17270E-02   -0.12755E+00  4464   0.247E+00    0.751E-02
DAV:   2    -0.127805811667E+03   -0.40579E-03   -0.51632E-03  4584   0.373E-01    0.616E-02
DAV:   3    -0.127805869196E+03   -0.57529E-04   -0.96385E-04  4728   0.490E-01    0.586E-02
DAV:   4    -0.127805845348E+03    0.23848E-04   -0.40674E-04  4784   0.514E-01    0.411E-02
DAV:   5    -0.127805763272E+03    0.82075E-04   -0.12638E-04  3832   0.304E-01    0.132E-02
DAV:   6    -0.127805763244E+03    0.28747E-07   -0.54214E-05  4096   0.685E-02
  67 F= -.12780576E+03 E0= -.12776718E+03  d E =-.208560E-02
quench:  g(F)=  0.000E+00 g(S)=  0.000E+00 dE (1.order)= 0.000E+00
 reached required accuracy - stopping structural energy minimisation
