 running on   35 total cores
 distrk:  each k-point on   35 cores,    1 groups
 distr:  one band on    1 cores,   35 groups
 using from now: INCAR     
 vasp.5.4.1 24Jun15 (build Oct 26 2018 17:15:27) complex                        
  
 POSCAR found type information on POSCAR  Mn F 
 POSCAR found :  2 types and       6 ions
 scaLAPACK will be used

 ----------------------------------------------------------------------------- 
|                                                                             |
|           W    W    AA    RRRRR   N    N  II  N    N   GGGG   !!!           |
|           W    W   A  A   R    R  NN   N  II  NN   N  G    G  !!!           |
|           W    W  A    A  R    R  N N  N  II  N N  N  G       !!!           |
|           W WW W  AAAAAA  RRRRR   N  N N  II  N  N N  G  GGG   !            |
|           WW  WW  A    A  R   R   N   NN  II  N   NN  G    G                |
|           W    W  A    A  R    R  N    N  II  N    N   GGGG   !!!           |
|                                                                             |
|      For optimal performance we recommend to set                            |
|        NCORE= 4 - approx SQRT( number of cores)                             |
|      NCORE specifies how many cores store one orbital (NPAR=cpu/NCORE).     |
|      This setting can  greatly improve the performance of VASP for DFT.     |
|      The default, NPAR=number of cores might be grossly inefficient         |
|      on modern multi-core architectures or massively parallel machines.     |
|      Do your own testing !!!!                                               |
|      Unfortunately you need to use the default for GW and RPA calculations. |
|      (for HF NCORE is supported but not extensively tested yet)             |
|                                                                             |
 ----------------------------------------------------------------------------- 

 LDA part: xc-table for Ceperly-Alder, standard interpolation
 POSCAR, INCAR and KPOINTS ok, starting setup
 WARNING: small aliasing (wrap around) errors must be expected
 FFT: planning ...
 WAVECAR not read
 entering main loop
       N       E                     dE             d eps       ncg     rms          rms(c)
DAV:   1     0.174845784701E+03    0.17485E+03   -0.24039E+04 38500   0.126E+03
DAV:   2    -0.324551952891E+02   -0.20730E+03   -0.20715E+03 47180   0.199E+02
DAV:   3    -0.377682589892E+02   -0.53131E+01   -0.52594E+01 46585   0.426E+01
DAV:   4    -0.378170991655E+02   -0.48840E-01   -0.48709E-01 64680   0.444E+00
DAV:   5    -0.378171363535E+02   -0.37188E-04   -0.37188E-04 48615   0.878E-02    0.149E+01
DAV:   6    -0.339633705016E+02    0.38538E+01   -0.68436E+01 39095   0.482E+01    0.940E+00
DAV:   7    -0.330494612423E+02    0.91391E+00   -0.12247E+01 38885   0.261E+01    0.409E+00
DAV:   8    -0.331099093773E+02   -0.60448E-01   -0.13128E+00 49665   0.404E+00    0.322E+00
DAV:   9    -0.331491249785E+02   -0.39216E-01   -0.55897E-01 60375   0.405E+00    0.178E+00
DAV:  10    -0.331148639335E+02    0.34261E-01   -0.17192E-01 46725   0.228E+00    0.813E-01
DAV:  11    -0.331080088361E+02    0.68551E-02   -0.51117E-02 56000   0.124E+00    0.307E-01
DAV:  12    -0.331076060881E+02    0.40275E-03   -0.47781E-03 43890   0.315E-01    0.345E-01
DAV:  13    -0.331077832059E+02   -0.17712E-03   -0.35017E-03 60410   0.154E-01    0.181E-01
DAV:  14    -0.331081138715E+02   -0.33067E-03   -0.84486E-03 47075   0.341E-01    0.309E-01
DAV:  15    -0.331078663771E+02    0.24749E-03   -0.38786E-03 45955   0.142E-01    0.870E-02
DAV:  16    -0.331080244379E+02   -0.15806E-03   -0.38454E-03 46515   0.118E-01    0.303E-01
DAV:  17    -0.331078109250E+02    0.21351E-03   -0.26324E-03 41195   0.108E-01    0.300E-02
DAV:  18    -0.331077642365E+02    0.46688E-04   -0.16083E-03 42735   0.931E-02    0.207E-01
DAV:  19    -0.331076713476E+02    0.92889E-04   -0.11174E-03 39865   0.721E-02    0.148E-02
DAV:  20    -0.331076513703E+02    0.19977E-04   -0.67466E-04 40250   0.621E-02    0.143E-01
DAV:  21    -0.331076105801E+02    0.40790E-04   -0.47099E-04 38920   0.474E-02    0.124E-02
DAV:  22    -0.331076032368E+02    0.73433E-05   -0.28184E-04 30695   0.408E-02    0.100E-01
DAV:  23    -0.331075848385E+02    0.18398E-04   -0.19836E-04 21945   0.313E-02    0.143E-02
DAV:  24    -0.331075822645E+02    0.25740E-05   -0.11696E-04 20615   0.272E-02    0.714E-02
DAV:  25    -0.331075738785E+02    0.83860E-05   -0.83570E-05 20440   0.207E-02
   1 F= -.33107574E+02 E0= -.33106956E+02  d E =-.331076E+02
 curvature:   0.00 expect dE= 0.000E+00 dE for cont linesearch  0.000E+00
 trial: gam= 0.00000 g(F)=  0.465E-03 g(S)=  0.473E+00 ort = 0.000E+00 (trialstep = 0.100E+01)
 search vector abs. value=  0.474E+00
 bond charge predicted
       N       E                     dE             d eps       ncg     rms          rms(c)
DAV:   1    -0.345013012018E+02   -0.13937E+01   -0.22805E+01 38675   0.346E+01    0.798E+00
DAV:   2    -0.336989318561E+02    0.80237E+00   -0.76044E+00 39375   0.121E+01    0.349E+00
DAV:   3    -0.336436260733E+02    0.55306E-01   -0.24194E+00 39445   0.779E+00    0.206E+00
DAV:   4    -0.335609303639E+02    0.82696E-01   -0.15299E-01 45535   0.173E+00    0.619E-01
DAV:   5    -0.335548317305E+02    0.60986E-02   -0.36637E-02 57750   0.666E-01    0.877E-01
DAV:   6    -0.335576753072E+02   -0.28436E-02   -0.80467E-02 58275   0.684E-01    0.121E+00
DAV:   7    -0.335561723449E+02    0.15030E-02   -0.82950E-02 43750   0.499E-01    0.447E-01
DAV:   8    -0.335523568203E+02    0.38155E-02   -0.31934E-02 39865   0.441E-01    0.649E-01
DAV:   9    -0.335515786181E+02    0.77820E-03   -0.27622E-02 45465   0.325E-01    0.317E-01
DAV:  10    -0.335503501202E+02    0.12285E-02   -0.12915E-02 43155   0.273E-01    0.358E-01
DAV:  11    -0.335498081447E+02    0.54198E-03   -0.74511E-03 41755   0.199E-01    0.139E-01
DAV:  12    -0.335495072319E+02    0.30091E-03   -0.38856E-03 41685   0.149E-01    0.228E-01
DAV:  13    -0.335493222503E+02    0.18498E-03   -0.20990E-03 41965   0.110E-01    0.348E-02
DAV:  14    -0.335492493314E+02    0.72919E-04   -0.11221E-03 40390   0.802E-02    0.162E-01
DAV:  15    -0.335491891630E+02    0.60168E-04   -0.60370E-04 39305   0.592E-02    0.207E-02
DAV:  16    -0.335491721538E+02    0.17009E-04   -0.32163E-04 31220   0.433E-02    0.124E-01
DAV:  17    -0.335491514061E+02    0.20748E-04   -0.17476E-04 20020   0.320E-02    0.478E-02
DAV:  18    -0.335491477939E+02    0.36122E-05   -0.91065E-05 19670   0.238E-02
   2 F= -.33549148E+02 E0= -.33548581E+02  d E =-.441574E+00
 trial-energy change:   -0.441574  1 .order   -0.437137   -0.473923   -0.400351
 step:   3.4286(harm=  6.4417)  dis= 0.00257  next Energy=   -34.098861 (dE=-0.991E+00)
 bond charge predicted
       N       E                     dE             d eps       ncg     rms          rms(c)
DAV:   1    -0.400317356363E+02   -0.64826E+01   -0.13939E+02 38570   0.853E+01    0.195E+01
DAV:   2    -0.349064452452E+02    0.51253E+01   -0.40463E+01 40285   0.293E+01    0.557E+00
DAV:   3    -0.344799610913E+02    0.42648E+00   -0.64034E+00 41405   0.178E+01    0.310E+00
DAV:   4    -0.343162023894E+02    0.16376E+00   -0.40550E-01 51485   0.385E+00    0.109E+00
DAV:   5    -0.342962107873E+02    0.19992E-01   -0.51702E-02 59045   0.907E-01    0.941E-01
DAV:   6    -0.342935919288E+02    0.26189E-02   -0.63039E-02 60585   0.804E-01    0.859E-01
DAV:   7    -0.342910407119E+02    0.25512E-02   -0.38753E-02 47355   0.394E-01    0.252E-01
DAV:   8    -0.342889990378E+02    0.20417E-02   -0.12285E-02 43890   0.296E-01    0.375E-01
DAV:   9    -0.342884750160E+02    0.52402E-03   -0.81122E-03 42035   0.180E-01    0.134E-01
DAV:  10    -0.342881128564E+02    0.36216E-03   -0.31392E-03 49700   0.130E-01    0.180E-01
DAV:  11    -0.342879412466E+02    0.17161E-03   -0.13422E-03 40005   0.822E-02    0.240E-02
DAV:  12    -0.342878763443E+02    0.64902E-04   -0.47316E-04 41195   0.535E-02    0.934E-02
DAV:  13    -0.342878462139E+02    0.30130E-04   -0.21285E-04 32620   0.322E-02    0.106E-02
DAV:  14    -0.342878334808E+02    0.12733E-04   -0.63730E-05 20055   0.217E-02    0.512E-02
DAV:  15    -0.342878279198E+02    0.55610E-05   -0.30458E-05 19845   0.125E-02
   3 F= -.34287828E+02 E0= -.34287386E+02  d E =-.118025E+01
 curvature:  -2.23 expect dE=-0.147E+00 dE for cont linesearch -0.141E+00
 ZBRENT: increasing intervall
 opt :   8.2859  next Energy=   -34.024563 (dE=-0.917E+00)
 bond charge predicted
       N       E                     dE             d eps       ncg     rms          rms(c)
DAV:   1    -0.567946264327E+02   -0.22507E+02   -0.59409E+02 38710   0.176E+02    0.395E+01
DAV:   2    -0.352681677965E+02    0.21526E+02   -0.13051E+02 43295   0.566E+01    0.100E+01
DAV:   3    -0.336685793818E+02    0.15996E+01   -0.13954E+01 43330   0.341E+01    0.521E+00
DAV:   4    -0.332962205824E+02    0.37236E+00   -0.11481E+00 55475   0.771E+00    0.207E+00
DAV:   5    -0.332285517784E+02    0.67669E-01   -0.12549E-01 58835   0.178E+00    0.119E+00
DAV:   6    -0.332153545901E+02    0.13197E-01   -0.56925E-02 61180   0.110E+00    0.392E-01
DAV:   7    -0.332131924406E+02    0.21621E-02   -0.15919E-02 49840   0.357E-01    0.292E-01
DAV:   8    -0.332124558331E+02    0.73661E-03   -0.45739E-03 59535   0.185E-01    0.919E-02
DAV:   9    -0.332121818401E+02    0.27399E-03   -0.87630E-04 41405   0.922E-02    0.477E-02
DAV:  10    -0.332121369753E+02    0.44865E-04   -0.19482E-04 39795   0.393E-02    0.279E-02
DAV:  11    -0.332121255541E+02    0.11421E-04   -0.53127E-05 21630   0.196E-02    0.108E-02
DAV:  12    -0.332121225294E+02    0.30247E-05   -0.11058E-05 20895   0.103E-02
   4 F= -.33212123E+02 E0= -.33211825E+02  d E =-.104549E+00
 curvature:   4.17 expect dE= 0.440E+01 dE for cont linesearch  0.401E+01
 ZBRENT: bracketing found
 ZBRENT: interpolating
 opt :   4.4191  next Energy=   -34.373541 (dE=-0.127E+01)
 bond charge predicted
       N       E                     dE             d eps       ncg     rms          rms(c)
DAV:   1    -0.488000515550E+02   -0.15588E+02   -0.38388E+02 38500   0.155E+02    0.301E+01
DAV:   2    -0.359486694584E+02    0.12851E+02   -0.79032E+01 42420   0.419E+01    0.768E+00
DAV:   3    -0.347234501219E+02    0.12252E+01   -0.10401E+01 42490   0.307E+01    0.372E+00
DAV:   4    -0.344646993705E+02    0.25875E+00   -0.11458E+00 53200   0.670E+00    0.155E+00
DAV:   5    -0.344315889069E+02    0.33110E-01   -0.13983E-01 54985   0.142E+00    0.128E+00
DAV:   6    -0.344145007531E+02    0.17088E-01   -0.56911E-02 61915   0.985E-01    0.192E-01
DAV:   7    -0.344121282009E+02    0.23726E-02   -0.19129E-02 61215   0.426E-01    0.775E-01
DAV:   8    -0.344104632142E+02    0.16650E-02   -0.21445E-02 60165   0.284E-01    0.850E-02
DAV:   9    -0.344093978301E+02    0.10654E-02   -0.56609E-03 47740   0.211E-01    0.317E-01
DAV:  10    -0.344090586666E+02    0.33916E-03   -0.41962E-03 51590   0.128E-01    0.659E-02
DAV:  11    -0.344088105836E+02    0.24808E-03   -0.88050E-04 52430   0.888E-02    0.674E-02
DAV:  12    -0.344087802192E+02    0.30364E-04   -0.46566E-04 48265   0.452E-02    0.598E-02
DAV:  13    -0.344087550300E+02    0.25189E-04   -0.17346E-04 28770   0.299E-02    0.135E-02
DAV:  14    -0.344087473411E+02    0.76889E-05   -0.61425E-05 20685   0.189E-02
   5 F= -.34408747E+02 E0= -.34408344E+02  d E =-.130117E+01
 curvature:  -0.09 expect dE=-0.105E-02 dE for cont linesearch -0.505E-03
 ZBRENT: interpolating
 opt :   4.8129  next Energy=   -34.419689 (dE=-0.131E+01)
 bond charge predicted
       N       E                     dE             d eps       ncg     rms          rms(c)
DAV:   1    -0.345721538281E+02   -0.16340E+00   -0.38683E+00 38500   0.148E+01    0.319E+00
DAV:   2    -0.344411255116E+02    0.13103E+00   -0.10132E+00 38955   0.470E+00    0.130E+00
DAV:   3    -0.344350797496E+02    0.60458E-02   -0.27234E-01 41510   0.321E+00    0.113E+00
DAV:   4    -0.344250400960E+02    0.10040E-01   -0.66175E-02 51625   0.813E-01    0.554E-01
DAV:   5    -0.344220991129E+02    0.29410E-02   -0.30045E-02 54040   0.441E-01    0.448E-01
DAV:   6    -0.344203999115E+02    0.16992E-02   -0.13158E-02 46445   0.272E-01    0.223E-01
DAV:   7    -0.344196549998E+02    0.74491E-03   -0.41507E-03 57295   0.173E-01    0.107E-01
DAV:   8    -0.344194709807E+02    0.18402E-03   -0.14282E-03 48755   0.894E-02    0.106E-01
DAV:   9    -0.344193937269E+02    0.77254E-04   -0.64543E-04 39900   0.559E-02    0.337E-02
DAV:  10    -0.344193610637E+02    0.32663E-04   -0.19876E-04 28805   0.349E-02    0.411E-02
DAV:  11    -0.344193494339E+02    0.11630E-04   -0.66425E-05 20370   0.200E-02    0.317E-03
DAV:  12    -0.344193459737E+02    0.34601E-05   -0.19053E-05 19740   0.118E-02
   6 F= -.34419346E+02 E0= -.34418957E+02  d E =-.131177E+01
 curvature:  -1.93 expect dE=-0.168E-01 dE for cont linesearch -0.233E-04
 ZBRENT: interpolating
 opt :   4.7955  next Energy=   -34.419367 (dE=-0.131E+01)
 bond charge predicted
       N       E                     dE             d eps       ncg     rms          rms(c)
DAV:   1    -0.344196690357E+02   -0.31960E-03   -0.75504E-03 38500   0.658E-01    0.141E-01
DAV:   2    -0.344194088092E+02    0.26023E-03   -0.19535E-03 39270   0.207E-01    0.523E-02
DAV:   3    -0.344193950774E+02    0.13732E-04   -0.46525E-04 41300   0.144E-01    0.533E-02
DAV:   4    -0.344193826525E+02    0.12425E-04   -0.18315E-04 31500   0.357E-02    0.290E-02
DAV:   5    -0.344193737822E+02    0.88703E-05   -0.69138E-05 19495   0.228E-02
   7 F= -.34419374E+02 E0= -.34418984E+02  d E =-.131180E+01
 curvature:  -1.72 expect dE=-0.148E-01 dE for cont linesearch -0.233E-05
 trial: gam= 0.01644 g(F)=  0.641E-02 g(S)=  0.219E-02 ort = 0.802E-03 (trialstep = 0.176E+01)
 search vector abs. value=  0.875E-02
 bond charge predicted
       N       E                     dE             d eps       ncg     rms          rms(c)
DAV:   1    -0.344343110480E+02   -0.14928E-01   -0.17488E+00 38500   0.787E+00    0.528E-01
DAV:   2    -0.344332505913E+02    0.10605E-02   -0.41490E-02 60760   0.115E+00    0.248E-01
DAV:   3    -0.344327751776E+02    0.47541E-03   -0.34395E-03 45500   0.263E-01    0.204E-01
DAV:   4    -0.344325365026E+02    0.23867E-03   -0.28861E-03 62230   0.184E-01    0.136E-01
DAV:   5    -0.344323644660E+02    0.17204E-03   -0.13484E-03 40110   0.134E-01    0.732E-02
DAV:   6    -0.344323133099E+02    0.51156E-04   -0.54321E-04 46480   0.563E-02    0.509E-02
DAV:   7    -0.344322874427E+02    0.25867E-04   -0.17385E-04 27755   0.328E-02    0.203E-02
DAV:   8    -0.344322803781E+02    0.70647E-05   -0.64376E-05 20755   0.196E-02
   8 F= -.34432280E+02 E0= -.34431903E+02  d E =-.129066E-01
 trial-energy change:   -0.012907  1 .order   -0.012921   -0.015143   -0.010700
 step:   5.9950(harm=  5.9950)  dis= 0.01659  next Energy=   -34.445178 (dE=-0.258E-01)
 bond charge predicted
       N       E                     dE             d eps       ncg     rms          rms(c)
DAV:   1    -0.344565315539E+02   -0.24244E-01   -0.10131E+01 38500   0.189E+01    0.128E+00
DAV:   2    -0.344509369930E+02    0.55946E-02   -0.24530E-01 60515   0.279E+00    0.641E-01
DAV:   3    -0.344482531956E+02    0.26838E-02   -0.22931E-02 45955   0.630E-01    0.538E-01
DAV:   4    -0.344467007005E+02    0.15525E-02   -0.20514E-02 61040   0.483E-01    0.357E-01
DAV:   5    -0.344454882357E+02    0.12125E-02   -0.88704E-03 40530   0.341E-01    0.196E-01
DAV:   6    -0.344451210570E+02    0.36718E-03   -0.37162E-03 56490   0.146E-01    0.131E-01
DAV:   7    -0.344449382035E+02    0.18285E-03   -0.11164E-03 41825   0.852E-02    0.559E-02
DAV:   8    -0.344448885979E+02    0.49606E-04   -0.44031E-04 41510   0.497E-02    0.595E-02
DAV:   9    -0.344448633164E+02    0.25281E-04   -0.16222E-04 27965   0.310E-02    0.131E-02
DAV:  10    -0.344448545501E+02    0.87664E-05   -0.47567E-05 20405   0.185E-02
   9 F= -.34444855E+02 E0= -.34444473E+02  d E =-.254808E-01
 curvature:  -3.05 expect dE=-0.519E-04 dE for cont linesearch -0.310E-04
 ZBRENT: interpolating
 opt :   5.7968  next Energy=   -34.444884 (dE=-0.255E-01)
 bond charge predicted
       N       E                     dE             d eps       ncg     rms          rms(c)
DAV:   1    -0.344448899196E+02   -0.26603E-04   -0.22193E-02 38500   0.887E-01    0.592E-02
DAV:   2    -0.344448738624E+02    0.16057E-04   -0.51232E-04 60900   0.129E-01    0.227E-02
DAV:   3    -0.344448660559E+02    0.78066E-05   -0.19900E-05 41440   0.333E-02
  10 F= -.34444866E+02 E0= -.34444487E+02  d E =-.254923E-01
 curvature:  -2.90 expect dE=-0.357E-04 dE for cont linesearch -0.831E-06
 trial: gam= 0.00546 g(F)=  0.182E-05 g(S)=  0.105E-04 ort =-0.500E-04 (trialstep = 0.257E+01)
 search vector abs. value=  0.120E-04
 reached required accuracy - stopping structural energy minimisation
