 vasp.5.4.1 24Jun15 (build Nov 26 2018 14:23:16) complex                        
  
 POSCAR found type information on POSCAR  C  N  H 
 05/POSCAR found :  3 types and       3 ions
 scaLAPACK will be used

 ----------------------------------------------------------------------------- 
|                                                                             |
|           W    W    AA    RRRRR   N    N  II  N    N   GGGG   !!!           |
|           W    W   A  A   R    R  NN   N  II  NN   N  G    G  !!!           |
|           W    W  A    A  R    R  N N  N  II  N N  N  G       !!!           |
|           W WW W  AAAAAA  RRRRR   N  N N  II  N  N N  G  GGG   !            |
|           WW  WW  A    A  R   R   N   NN  II  N   NN  G    G                |
|           W    W  A    A  R    R  N    N  II  N    N   GGGG   !!!           |
|                                                                             |
|      For optimal performance we recommend to set                            |
|        NCORE= 4 - approx SQRT( number of cores)                             |
|      NCORE specifies how many cores store one orbital (NPAR=cpu/NCORE).     |
|      This setting can  greatly improve the performance of VASP for DFT.     |
|      The default, NPAR=number of cores might be grossly inefficient         |
|      on modern multi-core architectures or massively parallel machines.     |
|      Do your own testing !!!!                                               |
|      Unfortunately you need to use the default for GW and RPA calculations. |
|      (for HF NCORE is supported but not extensively tested yet)             |
|                                                                             |
 ----------------------------------------------------------------------------- 

 LDA part: xc-table for Ceperly-Alder, standard interpolation
 POSCAR found type information on POSCAR  C  N  H 
 00/POSCAR found :  3 types and       3 ions
 POSCAR found type information on POSCAR  C  N  H 
 06/POSCAR found :  3 types and       3 ions
 Jacobian:    24.0187391035201     
 POSCAR, INCAR and KPOINTS ok, starting setup
 WARNING: small aliasing (wrap around) errors must be expected
 FFT: planning ...
 WAVECAR not read
 entering main loop
       N       E                     dE             d eps       ncg     rms          rms(c)
DAV:   1     0.776181149631E+02    0.77618E+02   -0.19827E+03    48   0.247E+02
DAV:   2    -0.602037778361E+01   -0.83638E+02   -0.83259E+02    48   0.817E+01
DAV:   3    -0.204480773745E+02   -0.14428E+02   -0.14393E+02    48   0.438E+01
DAV:   4    -0.208339458228E+02   -0.38587E+00   -0.38582E+00    48   0.926E+00
DAV:   5    -0.208347535959E+02   -0.80777E-03   -0.80777E-03    40   0.410E-01    0.114E+01
DAV:   6    -0.168579282821E+02    0.39768E+01   -0.81999E+00    32   0.136E+01    0.476E+00
DAV:   7    -0.161668957761E+02    0.69103E+00   -0.28270E+00    64   0.744E+00    0.161E+00
DAV:   8    -0.161265959332E+02    0.40300E-01   -0.69422E-02    48   0.128E+00    0.801E-01
DAV:   9    -0.160993957517E+02    0.27200E-01   -0.15751E-02    32   0.675E-01    0.136E-01
DAV:  10    -0.160969764898E+02    0.24193E-02   -0.83809E-03    56   0.400E-01    0.106E-01
DAV:  11    -0.160995775321E+02   -0.26010E-02   -0.65816E-03    48   0.397E-01    0.546E-02
DAV:  12    -0.161055120060E+02   -0.59345E-02   -0.29243E-03    32   0.279E-01    0.336E-02
DAV:  13    -0.161113657060E+02   -0.58537E-02   -0.32482E-03    40   0.222E-01    0.221E-02
DAV:  14    -0.161140241276E+02   -0.26584E-02   -0.11429E-03    56   0.122E-01    0.244E-02
DAV:  15    -0.161148186528E+02   -0.79453E-03   -0.20358E-04    56   0.504E-02    0.766E-03
DAV:  16    -0.161152524437E+02   -0.43379E-03   -0.50856E-05    48   0.267E-02    0.416E-03
DAV:  17    -0.161156191571E+02   -0.36671E-03   -0.24727E-05    48   0.188E-02    0.336E-03
DAV:  18    -0.161158143234E+02   -0.19517E-03   -0.18081E-05    48   0.120E-02    0.236E-03
DAV:  19    -0.161158830140E+02   -0.68691E-04   -0.49049E-06    48   0.678E-03    0.945E-04
DAV:  20    -0.161159143407E+02   -0.31327E-04   -0.54558E-07    48   0.264E-03    0.498E-04
DAV:  21    -0.161159283923E+02   -0.14052E-04   -0.42109E-07    32   0.224E-03    0.269E-04
DAV:  22    -0.161159325961E+02   -0.42038E-05   -0.90709E-08    48   0.169E-03
   1 F= -.16115933E+02 E0= -.16115933E+02  d E =-.161159E+02
quench:  g(F)=  0.000E+00 g(S)=  0.000E+00 dE (1.order)= 0.000E+00
 bond charge predicted
       N       E                     dE             d eps       ncg     rms          rms(c)
DAV:   1    -0.161502291388E+02   -0.34301E-01   -0.31172E-03    32   0.327E-01    0.266E-02
DAV:   2    -0.161502073428E+02    0.21796E-04   -0.77268E-05    56   0.486E-02    0.140E-02
DAV:   3    -0.161502022582E+02    0.50846E-05   -0.34322E-05    48   0.290E-02
   2 F= -.16150202E+02 E0= -.16150202E+02  d E =-.342697E-01
quench:  g(F)=  0.000E+00 g(S)=  0.000E+00 dE (1.order)= 0.000E+00
 bond charge predicted
       N       E                     dE             d eps       ncg     rms          rms(c)
DAV:   1    -0.167451060707E+02   -0.59490E+00   -0.11148E+00    32   0.617E+00    0.506E-01
DAV:   2    -0.167371970809E+02    0.79090E-02   -0.29013E-02    64   0.897E-01    0.256E-01
DAV:   3    -0.167356273373E+02    0.15697E-02   -0.97335E-03    56   0.488E-01    0.594E-02
DAV:   4    -0.167356508296E+02   -0.23492E-04   -0.32579E-04    40   0.974E-02    0.296E-02
DAV:   5    -0.167356594865E+02   -0.86568E-05   -0.40948E-05    40   0.390E-02
   3 F= -.16735659E+02 E0= -.16735659E+02  d E =-.585457E+00
quench:  g(F)=  0.000E+00 g(S)=  0.000E+00 dE (1.order)= 0.000E+00
 bond charge predicted
       N       E                     dE             d eps       ncg     rms          rms(c)
DAV:   1    -0.177406289078E+02   -0.10050E+01   -0.55655E+00    32   0.138E+01    0.108E+00
DAV:   2    -0.177051123311E+02    0.35517E-01   -0.15814E-01    56   0.198E+00    0.561E-01
DAV:   3    -0.176977303259E+02    0.73820E-02   -0.43945E-02    64   0.103E+00    0.141E-01
DAV:   4    -0.176977479192E+02   -0.17593E-04   -0.13297E-03    48   0.203E-01    0.692E-02
DAV:   5    -0.176978036881E+02   -0.55769E-04   -0.19042E-04    32   0.721E-02    0.148E-02
DAV:   6    -0.176979169461E+02   -0.11326E-03   -0.29788E-05    40   0.263E-02    0.712E-03
DAV:   7    -0.176981628249E+02   -0.24588E-03   -0.66468E-05    32   0.320E-02    0.401E-03
DAV:   8    -0.176984656804E+02   -0.30286E-03   -0.89885E-05    32   0.307E-02    0.363E-03
DAV:   9    -0.176986084816E+02   -0.14280E-03   -0.29911E-05    64   0.163E-02    0.120E-03
DAV:  10    -0.176986930498E+02   -0.84568E-04   -0.51530E-06    48   0.692E-03    0.126E-03
DAV:  11    -0.176987267981E+02   -0.33748E-04   -0.92609E-07    48   0.480E-03    0.525E-04
DAV:  12    -0.176987526731E+02   -0.25875E-04   -0.12317E-06    32   0.504E-03    0.484E-04
DAV:  13    -0.176987561226E+02   -0.34495E-05   -0.34992E-07    64   0.261E-03
   4 F= -.17698756E+02 E0= -.17698756E+02  d E =-.963097E+00
quench:  g(F)=  0.000E+00 g(S)=  0.000E+00 dE (1.order)= 0.000E+00
 bond charge predicted
       N       E                     dE             d eps       ncg     rms          rms(c)
DAV:   1    -0.182725891534E+02   -0.57384E+00   -0.45545E+00    32   0.123E+01    0.922E-01
DAV:   2    -0.182483756942E+02    0.24213E-01   -0.12293E-01    48   0.171E+00    0.494E-01
DAV:   3    -0.182429952807E+02    0.53804E-02   -0.31347E-02    64   0.857E-01    0.140E-01
DAV:   4    -0.182428600521E+02    0.13523E-03   -0.12183E-03    48   0.181E-01    0.665E-02
DAV:   5    -0.182428785782E+02   -0.18526E-04   -0.27799E-04    32   0.795E-02    0.174E-02
DAV:   6    -0.182429295724E+02   -0.50994E-04   -0.32541E-05    48   0.314E-02    0.640E-03
DAV:   7    -0.182430435387E+02   -0.11397E-03   -0.29830E-05    32   0.233E-02    0.357E-03
DAV:   8    -0.182431868885E+02   -0.14335E-03   -0.37858E-05    32   0.212E-02    0.289E-03
DAV:   9    -0.182433105130E+02   -0.12362E-03   -0.37616E-05    32   0.185E-02    0.126E-03
DAV:  10    -0.182433598029E+02   -0.49290E-04   -0.41993E-06    64   0.545E-03    0.850E-04
DAV:  11    -0.182433857298E+02   -0.25927E-04   -0.13014E-06    32   0.347E-03    0.498E-04
DAV:  12    -0.182434079223E+02   -0.22192E-04   -0.63154E-07    48   0.351E-03    0.403E-04
DAV:  13    -0.182434158395E+02   -0.79172E-05   -0.34392E-07    32   0.284E-03
   5 F= -.18243416E+02 E0= -.18243416E+02  d E =-.544660E+00
quench:  g(F)=  0.000E+00 g(S)=  0.000E+00 dE (1.order)= 0.000E+00
 bond charge predicted
       N       E                     dE             d eps       ncg     rms          rms(c)
DAV:   1    -0.185897226430E+02   -0.34631E+00   -0.34810E+00    32   0.106E+01    0.740E-01
DAV:   2    -0.185766489317E+02    0.13074E-01   -0.69473E-02    48   0.133E+00    0.414E-01
DAV:   3    -0.185728895742E+02    0.37594E-02   -0.24136E-02    64   0.732E-01    0.117E-01
DAV:   4    -0.185727735082E+02    0.11607E-03   -0.10949E-03    56   0.151E-01    0.576E-02
DAV:   5    -0.185728214446E+02   -0.47936E-04   -0.19923E-04    32   0.667E-02    0.201E-02
DAV:   6    -0.185728558903E+02   -0.34446E-04   -0.35467E-05    32   0.321E-02    0.536E-03
DAV:   7    -0.185729357211E+02   -0.79831E-04   -0.20605E-05    32   0.184E-02    0.277E-03
DAV:   8    -0.185730161041E+02   -0.80383E-04   -0.17730E-05    32   0.145E-02    0.210E-03
DAV:   9    -0.185731067915E+02   -0.90687E-04   -0.29207E-05    32   0.165E-02    0.118E-03
DAV:  10    -0.185731320686E+02   -0.25277E-04   -0.34293E-06    56   0.490E-03    0.813E-04
DAV:  11    -0.185731548341E+02   -0.22765E-04   -0.16203E-06    32   0.366E-03    0.490E-04
DAV:  12    -0.185731683589E+02   -0.13525E-04   -0.45307E-07    48   0.292E-03    0.361E-04
DAV:  13    -0.185731756011E+02   -0.72422E-05   -0.29013E-07    32   0.243E-03
   6 F= -.18573176E+02 E0= -.18573176E+02  d E =-.329760E+00
quench:  g(F)=  0.000E+00 g(S)=  0.000E+00 dE (1.order)= 0.000E+00
 bond charge predicted
       N       E                     dE             d eps       ncg     rms          rms(c)
DAV:   1    -0.187827803071E+02   -0.20961E+00   -0.24171E+00    32   0.876E+00    0.563E-01
DAV:   2    -0.187778931150E+02    0.48872E-02   -0.33777E-02    40   0.961E-01    0.321E-01
DAV:   3    -0.187757703024E+02    0.21228E-02   -0.14804E-02    56   0.561E-01    0.852E-02
DAV:   4    -0.187756987600E+02    0.71542E-04   -0.10900E-03    56   0.153E-01    0.444E-02
DAV:   5    -0.187757193199E+02   -0.20560E-04   -0.92249E-05    32   0.492E-02    0.133E-02
DAV:   6    -0.187757451483E+02   -0.25828E-04   -0.15692E-05    32   0.194E-02    0.477E-03
DAV:   7    -0.187757893258E+02   -0.44177E-04   -0.12546E-05    32   0.140E-02    0.220E-03
DAV:   8    -0.187758211994E+02   -0.31874E-04   -0.59068E-06    32   0.867E-03    0.130E-03
DAV:   9    -0.187758587423E+02   -0.37543E-04   -0.12141E-05    32   0.109E-02    0.636E-04
DAV:  10    -0.187758696096E+02   -0.10867E-04   -0.28169E-06    48   0.471E-03    0.448E-04
DAV:  11    -0.187758799283E+02   -0.10319E-04   -0.10351E-06    32   0.283E-03    0.230E-04
DAV:  12    -0.187758834800E+02   -0.35517E-05   -0.18065E-07    48   0.154E-03
   7 F= -.18775883E+02 E0= -.18775883E+02  d E =-.202708E+00
quench:  g(F)=  0.000E+00 g(S)=  0.000E+00 dE (1.order)= 0.000E+00
 bond charge predicted
       N       E                     dE             d eps       ncg     rms          rms(c)
DAV:   1    -0.188873000452E+02   -0.11142E+00   -0.21729E+00    32   0.823E+00    0.496E-01
DAV:   2    -0.188846094674E+02    0.26906E-02   -0.31520E-02    32   0.909E-01    0.283E-01
DAV:   3    -0.188829470507E+02    0.16624E-02   -0.74840E-03    56   0.394E-01    0.724E-02
DAV:   4    -0.188829425363E+02    0.45144E-05   -0.26071E-04    48   0.882E-02    0.332E-02
DAV:   5    -0.188829660695E+02   -0.23533E-04   -0.70280E-05    32   0.426E-02    0.716E-03
DAV:   6    -0.188829966734E+02   -0.30604E-04   -0.76520E-06    32   0.131E-02    0.371E-03
DAV:   7    -0.188830309352E+02   -0.34262E-04   -0.73984E-06    32   0.107E-02    0.166E-03
DAV:   8    -0.188830473286E+02   -0.16393E-04   -0.17083E-06    40   0.485E-03    0.113E-03
DAV:   9    -0.188830793868E+02   -0.32058E-04   -0.10433E-05    32   0.107E-02    0.634E-04
DAV:  10    -0.188830871242E+02   -0.77374E-05   -0.14484E-06    48   0.358E-03
   8 F= -.18883087E+02 E0= -.18883087E+02  d E =-.107204E+00
quench:  g(F)=  0.000E+00 g(S)=  0.000E+00 dE (1.order)= 0.000E+00
 bond charge predicted
       N       E                     dE             d eps       ncg     rms          rms(c)
DAV:   1    -0.189128952497E+02   -0.29816E-01   -0.11570E+00    32   0.594E+00    0.339E-01
DAV:   2    -0.189119360112E+02    0.95924E-03   -0.18120E-02    40   0.667E-01    0.196E-01
DAV:   3    -0.189112040787E+02    0.73193E-03   -0.24294E-03    32   0.217E-01    0.643E-02
DAV:   4    -0.189111634734E+02    0.40605E-04   -0.32388E-04    48   0.912E-02    0.219E-02
DAV:   5    -0.189111784379E+02   -0.14964E-04   -0.47622E-05    40   0.323E-02    0.842E-03
DAV:   6    -0.189111932946E+02   -0.14857E-04   -0.64102E-06    32   0.136E-02    0.267E-03
DAV:   7    -0.189112174164E+02   -0.24122E-04   -0.44609E-06    32   0.838E-03    0.987E-04
DAV:   8    -0.189112304204E+02   -0.13004E-04   -0.15436E-06    48   0.439E-03    0.733E-04
DAV:   9    -0.189112477633E+02   -0.17343E-04   -0.41347E-06    32   0.663E-03    0.394E-04
DAV:  10    -0.189112527268E+02   -0.49635E-05   -0.87184E-07    32   0.299E-03
   9 F= -.18911253E+02 E0= -.18911253E+02  d E =-.281656E-01
quench:  g(F)=  0.000E+00 g(S)=  0.000E+00 dE (1.order)= 0.000E+00
 bond charge predicted
       N       E                     dE             d eps       ncg     rms          rms(c)
DAV:   1    -0.189137389626E+02   -0.24912E-02   -0.15161E-01    32   0.208E+00    0.127E-01
DAV:   2    -0.189135779017E+02    0.16106E-03   -0.36820E-03    48   0.269E-01    0.719E-02
DAV:   3    -0.189135011073E+02    0.76794E-04   -0.21687E-04    40   0.734E-02    0.346E-02
DAV:   4    -0.189134771115E+02    0.23996E-04   -0.84211E-05    32   0.486E-02    0.736E-03
DAV:   5    -0.189134822111E+02   -0.50996E-05   -0.19470E-05    32   0.184E-02
  10 F= -.18913482E+02 E0= -.18913482E+02  d E =-.222948E-02
quench:  g(F)=  0.000E+00 g(S)=  0.000E+00 dE (1.order)= 0.000E+00
 bond charge predicted
       N       E                     dE             d eps       ncg     rms          rms(c)
DAV:   1    -0.189150120084E+02   -0.15349E-02   -0.21588E-02    32   0.788E-01    0.528E-02
DAV:   2    -0.189149939709E+02    0.18037E-04   -0.32910E-04    40   0.835E-02    0.282E-02
DAV:   3    -0.189149839487E+02    0.10022E-04   -0.38520E-05    32   0.270E-02    0.107E-02
DAV:   4    -0.189149876307E+02   -0.36820E-05   -0.60892E-06    32   0.137E-02
  11 F= -.18914988E+02 E0= -.18914988E+02  d E =-.150542E-02
quench:  g(F)=  0.000E+00 g(S)=  0.000E+00 dE (1.order)= 0.000E+00
 bond charge predicted
       N       E                     dE             d eps       ncg     rms          rms(c)
DAV:   1    -0.189230847336E+02   -0.81008E-02   -0.55320E-01    32   0.401E+00    0.244E-01
DAV:   2    -0.189229553921E+02    0.12934E-03   -0.49905E-03    40   0.336E-01    0.134E-01
DAV:   3    -0.189228013374E+02    0.15405E-03   -0.90944E-04    32   0.111E-01    0.330E-02
DAV:   4    -0.189227928481E+02    0.84893E-05   -0.94429E-05    40   0.417E-02
  12 F= -.18922793E+02 E0= -.18922793E+02  d E =-.780522E-02
quench:  g(F)=  0.000E+00 g(S)=  0.000E+00 dE (1.order)= 0.000E+00
 bond charge predicted
       N       E                     dE             d eps       ncg     rms          rms(c)
DAV:   1    -0.189480582171E+02   -0.25257E-01   -0.95754E+00    32   0.166E+01    0.996E-01
DAV:   2    -0.189461895349E+02    0.18687E-02   -0.93887E-02    40   0.145E+00    0.564E-01
DAV:   3    -0.189447644991E+02    0.14250E-02   -0.15156E-02    32   0.440E-01    0.140E-01
DAV:   4    -0.189448660591E+02   -0.10156E-03   -0.18270E-03    56   0.171E-01    0.629E-02
DAV:   5    -0.189449998554E+02   -0.13380E-03   -0.46771E-04    32   0.835E-02    0.256E-02
DAV:   6    -0.189451317251E+02   -0.13187E-03   -0.63033E-05    32   0.452E-02    0.626E-03
DAV:   7    -0.189453248179E+02   -0.19309E-03   -0.22865E-05    32   0.175E-02    0.312E-03
DAV:   8    -0.189455478730E+02   -0.22306E-03   -0.30914E-05    32   0.174E-02    0.230E-03
DAV:   9    -0.189457683778E+02   -0.22050E-03   -0.46436E-05    32   0.203E-02    0.128E-03
DAV:  10    -0.189458096777E+02   -0.41300E-04   -0.40191E-06    56   0.652E-03    0.772E-04
DAV:  11    -0.189458475712E+02   -0.37893E-04   -0.23107E-06    32   0.674E-03    0.443E-04
DAV:  12    -0.189458560953E+02   -0.85240E-05   -0.44756E-07    32   0.282E-03
  13 F= -.18945856E+02 E0= -.18945856E+02  d E =-.230632E-01
quench:  g(F)=  0.000E+00 g(S)=  0.000E+00 dE (1.order)= 0.000E+00
 bond charge predicted
       N       E                     dE             d eps       ncg     rms          rms(c)
DAV:   1    -0.189539330660E+02   -0.80855E-02   -0.10669E+01    32   0.181E+01    0.108E+00
DAV:   2    -0.189431698028E+02    0.10763E-01   -0.20159E-01    56   0.205E+00    0.569E-01
DAV:   3    -0.189403269308E+02    0.28429E-02   -0.20070E-02    56   0.590E-01    0.217E-01
DAV:   4    -0.189401372421E+02    0.18969E-03   -0.37344E-03    32   0.260E-01    0.750E-02
DAV:   5    -0.189401633655E+02   -0.26123E-04   -0.61249E-04    32   0.115E-01    0.256E-02
DAV:   6    -0.189402494983E+02   -0.86133E-04   -0.61466E-05    32   0.452E-02    0.761E-03
DAV:   7    -0.189403943069E+02   -0.14481E-03   -0.18850E-05    32   0.160E-02    0.415E-03
DAV:   8    -0.189405861524E+02   -0.19185E-03   -0.26633E-05    32   0.177E-02    0.264E-03
DAV:   9    -0.189407895325E+02   -0.20338E-03   -0.36829E-05    32   0.179E-02    0.164E-03
DAV:  10    -0.189408721403E+02   -0.82608E-04   -0.13004E-05    56   0.109E-02    0.914E-04
DAV:  11    -0.189409227330E+02   -0.50593E-04   -0.31412E-06    32   0.777E-03    0.668E-04
DAV:  12    -0.189409291732E+02   -0.64402E-05   -0.40720E-07    48   0.335E-03
  14 F= -.18940929E+02 E0= -.18940929E+02  d E =0.492692E-02
quench:  g(F)=  0.000E+00 g(S)=  0.000E+00 dE (1.order)= 0.000E+00
 bond charge predicted
       N       E                     dE             d eps       ncg     rms          rms(c)
DAV:   1    -0.189670593795E+02   -0.26137E-01   -0.47840E+00    32   0.121E+01    0.856E-01
DAV:   2    -0.189507671451E+02    0.16292E-01   -0.14061E-01    40   0.177E+00    0.509E-01
DAV:   3    -0.189455132701E+02    0.52539E-02   -0.25975E-02    48   0.750E-01    0.178E-01
DAV:   4    -0.189449858088E+02    0.52746E-03   -0.23506E-03    48   0.247E-01    0.720E-02
DAV:   5    -0.189451358921E+02   -0.15008E-03   -0.42029E-04    32   0.982E-02    0.229E-02
DAV:   6    -0.189453081929E+02   -0.17230E-03   -0.62421E-05    40   0.360E-02    0.659E-03
DAV:   7    -0.189455308772E+02   -0.22268E-03   -0.26418E-05    32   0.192E-02    0.459E-03
DAV:   8    -0.189458640354E+02   -0.33316E-03   -0.59853E-05    40   0.266E-02    0.313E-03
DAV:   9    -0.189460573773E+02   -0.19334E-03   -0.34842E-05    40   0.182E-02    0.159E-03
DAV:  10    -0.189461192727E+02   -0.61895E-04   -0.55273E-06    48   0.824E-03    0.827E-04
DAV:  11    -0.189461591828E+02   -0.39910E-04   -0.26630E-06    32   0.670E-03    0.687E-04
DAV:  12    -0.189461659883E+02   -0.68055E-05   -0.35350E-07    48   0.275E-03
  15 F= -.18946166E+02 E0= -.18946166E+02  d E =-.523682E-02
quench:  g(F)=  0.000E+00 g(S)=  0.000E+00 dE (1.order)= 0.000E+00
 bond charge predicted
       N       E                     dE             d eps       ncg     rms          rms(c)
DAV:   1    -0.189597743868E+02   -0.13615E-01   -0.26688E+00    32   0.919E+00    0.625E-01
DAV:   2    -0.189509141638E+02    0.88602E-02   -0.10120E-01    48   0.134E+00    0.351E-01
DAV:   3    -0.189488912737E+02    0.20229E-02   -0.10453E-02    64   0.454E-01    0.155E-01
DAV:   4    -0.189485327778E+02    0.35850E-03   -0.20079E-03    32   0.232E-01    0.482E-02
DAV:   5    -0.189485747343E+02   -0.41957E-04   -0.22987E-04    48   0.806E-02    0.138E-02
DAV:   6    -0.189486390452E+02   -0.64311E-04   -0.19810E-05    32   0.246E-02    0.450E-03
DAV:   7    -0.189487255614E+02   -0.86516E-04   -0.15536E-05    32   0.152E-02    0.296E-03
DAV:   8    -0.189488408305E+02   -0.11527E-03   -0.30304E-05    32   0.191E-02    0.229E-03
DAV:   9    -0.189489181939E+02   -0.77363E-04   -0.22159E-05    32   0.142E-02    0.123E-03
DAV:  10    -0.189489506730E+02   -0.32479E-04   -0.30245E-06    56   0.498E-03    0.677E-04
DAV:  11    -0.189489690964E+02   -0.18423E-04   -0.55339E-07    32   0.265E-03    0.435E-04
DAV:  12    -0.189489796927E+02   -0.10596E-04   -0.35100E-07    48   0.262E-03    0.267E-04
DAV:  13    -0.189489836263E+02   -0.39336E-05   -0.10369E-07    32   0.134E-03
  16 F= -.18948984E+02 E0= -.18948984E+02  d E =-.281764E-02
quench:  g(F)=  0.000E+00 g(S)=  0.000E+00 dE (1.order)= 0.000E+00
 bond charge predicted
       N       E                     dE             d eps       ncg     rms          rms(c)
DAV:   1    -0.189160708507E+02    0.32909E-01   -0.17596E+01    32   0.229E+01    0.129E+00
DAV:   2    -0.189149655165E+02    0.11053E-02   -0.16659E-01    40   0.204E+00    0.732E-01
DAV:   3    -0.189124656095E+02    0.24999E-02   -0.29412E-02    40   0.592E-01    0.143E-01
DAV:   4    -0.189126159020E+02   -0.15029E-03   -0.17397E-03    32   0.189E-01    0.750E-02
DAV:   5    -0.189127333575E+02   -0.11746E-03   -0.46558E-04    32   0.104E-01    0.141E-02
DAV:   6    -0.189128594077E+02   -0.12605E-03   -0.37298E-05    32   0.319E-02    0.531E-03
DAV:   7    -0.189130191591E+02   -0.15975E-03   -0.28855E-05    32   0.191E-02    0.248E-03
DAV:   8    -0.189131364125E+02   -0.11725E-03   -0.16599E-05    48   0.122E-02    0.174E-03
DAV:   9    -0.189132651585E+02   -0.12875E-03   -0.33299E-05    32   0.165E-02    0.113E-03
DAV:  10    -0.189133007169E+02   -0.35558E-04   -0.36031E-06    48   0.498E-03    0.672E-04
DAV:  11    -0.189133303577E+02   -0.29641E-04   -0.25972E-06    32   0.523E-03    0.422E-04
DAV:  12    -0.189133384805E+02   -0.81228E-05   -0.47997E-07    32   0.293E-03
  17 F= -.18913338E+02 E0= -.18913338E+02  d E =0.356451E-01
quench:  g(F)=  0.000E+00 g(S)=  0.000E+00 dE (1.order)= 0.000E+00
 bond charge predicted
       N       E                     dE             d eps       ncg     rms          rms(c)
DAV:   1    -0.189345414141E+02   -0.21211E-01   -0.10110E+01    32   0.172E+01    0.101E+00
DAV:   2    -0.189333974023E+02    0.11440E-02   -0.10796E-01    40   0.155E+00    0.599E-01
DAV:   3    -0.189311602602E+02    0.22371E-02   -0.22472E-02    40   0.582E-01    0.157E-01
DAV:   4    -0.189311944189E+02   -0.34159E-04   -0.19360E-03    32   0.184E-01    0.721E-02
DAV:   5    -0.189313242314E+02   -0.12981E-03   -0.71375E-04    32   0.113E-01    0.254E-02
DAV:   6    -0.189314200357E+02   -0.95804E-04   -0.55707E-05    40   0.438E-02    0.669E-03
DAV:   7    -0.189315887057E+02   -0.16867E-03   -0.23143E-05    32   0.178E-02    0.285E-03
DAV:   8    -0.189317354620E+02   -0.14676E-03   -0.16280E-05    48   0.128E-02    0.217E-03
DAV:   9    -0.189319264908E+02   -0.19103E-03   -0.45162E-05    32   0.202E-02    0.154E-03
DAV:  10    -0.189319757292E+02   -0.49238E-04   -0.50472E-06    48   0.723E-03    0.663E-04
DAV:  11    -0.189319992505E+02   -0.23521E-04   -0.13292E-06    32   0.467E-03    0.487E-04
DAV:  12    -0.189320112350E+02   -0.11984E-04   -0.85107E-07    32   0.362E-03    0.281E-04
DAV:  13    -0.189320148187E+02   -0.35837E-05   -0.88516E-08    48   0.113E-03
  18 F= -.18932015E+02 E0= -.18932015E+02  d E =-.186763E-01
quench:  g(F)=  0.000E+00 g(S)=  0.000E+00 dE (1.order)= 0.000E+00
 bond charge predicted
       N       E                     dE             d eps       ncg     rms          rms(c)
DAV:   1    -0.188787832723E+02    0.53228E-01   -0.75166E+00    32   0.154E+01    0.109E+00
DAV:   2    -0.188465961067E+02    0.32187E-01   -0.34907E-01    40   0.236E+00    0.596E-01
DAV:   3    -0.188409698340E+02    0.56263E-02   -0.39108E-02    64   0.880E-01    0.251E-01
DAV:   4    -0.188398390123E+02    0.11308E-02   -0.58381E-03    40   0.394E-01    0.818E-02
DAV:   5    -0.188399203413E+02   -0.81329E-04   -0.59192E-04    40   0.134E-01    0.226E-02
DAV:   6    -0.188400623861E+02   -0.14204E-03   -0.60115E-05    48   0.350E-02    0.902E-03
DAV:   7    -0.188402945108E+02   -0.23212E-03   -0.50480E-05    32   0.296E-02    0.493E-03
DAV:   8    -0.188406621945E+02   -0.36768E-03   -0.11814E-04    32   0.390E-02    0.429E-03
DAV:   9    -0.188408697485E+02   -0.20755E-03   -0.46393E-05    48   0.211E-02    0.225E-03
DAV:  10    -0.188409322291E+02   -0.62481E-04   -0.47939E-06    40   0.765E-03    0.110E-03
DAV:  11    -0.188410035719E+02   -0.71343E-04   -0.22737E-06    48   0.655E-03    0.933E-04
DAV:  12    -0.188410268262E+02   -0.23254E-04   -0.80476E-07    32   0.425E-03    0.623E-04
DAV:  13    -0.188410455447E+02   -0.18718E-04   -0.12072E-06    48   0.470E-03    0.264E-04
DAV:  14    -0.188410475769E+02   -0.20323E-05   -0.67404E-08    32   0.102E-03
  19 F= -.18841048E+02 E0= -.18841048E+02  d E =0.909672E-01
quench:  g(F)=  0.000E+00 g(S)=  0.000E+00 dE (1.order)= 0.000E+00
 bond charge predicted
       N       E                     dE             d eps       ncg     rms          rms(c)
DAV:   1    -0.189502944835E+02   -0.10925E+00   -0.35322E+00    32   0.105E+01    0.726E-01
DAV:   2    -0.189366310115E+02    0.13663E-01   -0.14931E-01    40   0.163E+00    0.400E-01
DAV:   3    -0.189335436363E+02    0.30874E-02   -0.15064E-02    48   0.563E-01    0.165E-01
DAV:   4    -0.189326982136E+02    0.84542E-03   -0.28808E-03    40   0.277E-01    0.522E-02
DAV:   5    -0.189328106891E+02   -0.11248E-03   -0.55603E-04    32   0.106E-01    0.273E-02
DAV:   6    -0.189329669395E+02   -0.15625E-03   -0.18438E-04    40   0.494E-02    0.829E-03
DAV:   7    -0.189331224354E+02   -0.15550E-03   -0.69760E-05    32   0.332E-02    0.858E-03
DAV:   8    -0.189333747063E+02   -0.25227E-03   -0.65494E-05    40   0.299E-02    0.406E-03
DAV:   9    -0.189336056658E+02   -0.23096E-03   -0.44391E-05    32   0.222E-02    0.221E-03
DAV:  10    -0.189337099753E+02   -0.10431E-03   -0.15586E-05    48   0.121E-02    0.103E-03
DAV:  11    -0.189337453343E+02   -0.35359E-04   -0.17216E-06    32   0.599E-03    0.693E-04
DAV:  12    -0.189337713234E+02   -0.25989E-04   -0.13463E-06    48   0.513E-03    0.407E-04
DAV:  13    -0.189337757671E+02   -0.44437E-05   -0.14590E-07    32   0.152E-03
  20 F= -.18933776E+02 E0= -.18933776E+02  d E =-.927282E-01
quench:  g(F)=  0.000E+00 g(S)=  0.000E+00 dE (1.order)= 0.000E+00
 bond charge predicted
       N       E                     dE             d eps       ncg     rms          rms(c)
DAV:   1    -0.189337720184E+02   -0.69497E-06   -0.16863E-01    48   0.230E+00    0.149E-01
DAV:   2    -0.189333666617E+02    0.40536E-03   -0.54016E-03    32   0.321E-01    0.812E-02
DAV:   3    -0.189332380760E+02    0.12859E-03   -0.54699E-04    56   0.111E-01    0.324E-02
DAV:   4    -0.189332114480E+02    0.26628E-04   -0.83811E-05    32   0.499E-02    0.106E-02
DAV:   5    -0.189332186753E+02   -0.72273E-05   -0.12449E-05    48   0.178E-02
  21 F= -.18933219E+02 E0= -.18933219E+02  d E =0.557092E-03
quench:  g(F)=  0.000E+00 g(S)=  0.000E+00 dE (1.order)= 0.000E+00
 bond charge predicted
       N       E                     dE             d eps       ncg     rms          rms(c)
DAV:   1    -0.189320634823E+02    0.11480E-02   -0.54401E-02    32   0.131E+00    0.890E-02
DAV:   2    -0.189318831824E+02    0.18030E-03   -0.23112E-03    32   0.201E-01    0.466E-02
DAV:   3    -0.189318406833E+02    0.42499E-04   -0.20937E-04    48   0.685E-02    0.196E-02
DAV:   4    -0.189318340728E+02    0.66105E-05   -0.43381E-05    32   0.348E-02
  22 F= -.18931834E+02 E0= -.18931834E+02  d E =0.138460E-02
quench:  g(F)=  0.000E+00 g(S)=  0.000E+00 dE (1.order)= 0.000E+00
 bond charge predicted
       N       E                     dE             d eps       ncg     rms          rms(c)
DAV:   1    -0.189333030470E+02   -0.14624E-02   -0.15794E-01    32   0.216E+00    0.127E-01
DAV:   2    -0.189333564168E+02   -0.53370E-04   -0.15051E-03    56   0.197E-01    0.703E-02
DAV:   3    -0.189332678456E+02    0.88571E-04   -0.28618E-04    32   0.669E-02    0.139E-02
DAV:   4    -0.189332727088E+02   -0.48632E-05   -0.27085E-05    32   0.223E-02
  23 F= -.18933273E+02 E0= -.18933273E+02  d E =-.143864E-02
quench:  g(F)=  0.000E+00 g(S)=  0.000E+00 dE (1.order)= 0.000E+00
 bond charge predicted
       N       E                     dE             d eps       ncg     rms          rms(c)
DAV:   1    -0.189349886066E+02   -0.17208E-02   -0.63898E-02    32   0.137E+00    0.845E-02
DAV:   2    -0.189349958651E+02   -0.72584E-05   -0.73486E-04    40   0.130E-01    0.491E-02
DAV:   3    -0.189349498162E+02    0.46049E-04   -0.16702E-04    40   0.564E-02    0.137E-02
DAV:   4    -0.189349534852E+02   -0.36690E-05   -0.15540E-05    32   0.181E-02
  24 F= -.18934953E+02 E0= -.18934953E+02  d E =-.168078E-02
quench:  g(F)=  0.000E+00 g(S)=  0.000E+00 dE (1.order)= 0.000E+00
 bond charge predicted
       N       E                     dE             d eps       ncg     rms          rms(c)
DAV:   1    -0.189371657162E+02   -0.22159E-02   -0.15144E-01    32   0.211E+00    0.127E-01
DAV:   2    -0.189372041518E+02   -0.38436E-04   -0.13547E-03    40   0.181E-01    0.723E-02
DAV:   3    -0.189371137244E+02    0.90427E-04   -0.31356E-04    32   0.730E-02    0.160E-02
DAV:   4    -0.189371200005E+02   -0.62761E-05   -0.34779E-05    32   0.248E-02
  25 F= -.18937120E+02 E0= -.18937120E+02  d E =-.216652E-02
quench:  g(F)=  0.000E+00 g(S)=  0.000E+00 dE (1.order)= 0.000E+00
 bond charge predicted
       N       E                     dE             d eps       ncg     rms          rms(c)
DAV:   1    -0.189479328010E+02   -0.10819E-01   -0.11641E+00    32   0.582E+00    0.347E-01
DAV:   2    -0.189477629194E+02    0.16988E-03   -0.96738E-03    40   0.477E-01    0.194E-01
DAV:   3    -0.189474902599E+02    0.27266E-03   -0.20115E-03    40   0.157E-01    0.404E-02
DAV:   4    -0.189475079529E+02   -0.17693E-04   -0.20780E-04    32   0.598E-02    0.204E-02
DAV:   5    -0.189475339222E+02   -0.25969E-04   -0.40547E-05    32   0.276E-02    0.686E-03
DAV:   6    -0.189475620972E+02   -0.28175E-04   -0.66075E-06    48   0.140E-02    0.172E-03
DAV:   7    -0.189476003207E+02   -0.38223E-04   -0.43282E-06    32   0.668E-03    0.930E-04
DAV:   8    -0.189476337700E+02   -0.33449E-04   -0.38485E-06    32   0.574E-03    0.630E-04
DAV:   9    -0.189476637223E+02   -0.29952E-04   -0.59708E-06    32   0.698E-03    0.423E-04
DAV:  10    -0.189476700009E+02   -0.62786E-05   -0.27358E-07    32   0.170E-03
  26 F= -.18947670E+02 E0= -.18947670E+02  d E =-.105500E-01
quench:  g(F)=  0.000E+00 g(S)=  0.000E+00 dE (1.order)= 0.000E+00
 bond charge predicted
       N       E                     dE             d eps       ncg     rms          rms(c)
DAV:   1    -0.189789526422E+02   -0.31289E-01   -0.24681E+01    32   0.270E+01    0.140E+00
DAV:   2    -0.189843940862E+02   -0.54414E-02   -0.26698E-01    40   0.251E+00    0.848E-01
DAV:   3    -0.189794287101E+02    0.49654E-02   -0.37503E-02    48   0.665E-01    0.165E-01
DAV:   4    -0.189795779422E+02   -0.14923E-03   -0.28572E-03    40   0.215E-01    0.819E-02
DAV:   5    -0.189796541417E+02   -0.76200E-04   -0.36614E-04    32   0.789E-02    0.342E-02
DAV:   6    -0.189798017991E+02   -0.14766E-03   -0.14060E-04    32   0.589E-02    0.867E-03
DAV:   7    -0.189799422024E+02   -0.14040E-03   -0.25248E-05    48   0.206E-02    0.441E-03
DAV:   8    -0.189801034823E+02   -0.16128E-03   -0.20977E-05    32   0.144E-02    0.217E-03
DAV:   9    -0.189802600477E+02   -0.15657E-03   -0.23492E-05    32   0.127E-02    0.120E-03
DAV:  10    -0.189803579494E+02   -0.97902E-04   -0.18613E-05    32   0.113E-02    0.915E-04
DAV:  11    -0.189803941473E+02   -0.36198E-04   -0.33383E-06    32   0.691E-03    0.596E-04
DAV:  12    -0.189804033995E+02   -0.92523E-05   -0.66839E-07    32   0.344E-03
  27 F= -.18980403E+02 E0= -.18980403E+02  d E =-.327334E-01
quench:  g(F)=  0.000E+00 g(S)=  0.000E+00 dE (1.order)= 0.000E+00
 bond charge predicted
       N       E                     dE             d eps       ncg     rms          rms(c)
DAV:   1    -0.189917706435E+02   -0.11376E-01   -0.26018E+00    32   0.883E+00    0.489E-01
DAV:   2    -0.189904538788E+02    0.13168E-02   -0.40066E-02    56   0.957E-01    0.264E-01
DAV:   3    -0.189896857691E+02    0.76811E-03   -0.21841E-03    32   0.209E-01    0.107E-01
DAV:   4    -0.189895600482E+02    0.12572E-03   -0.61966E-04    32   0.131E-01    0.225E-02
DAV:   5    -0.189895978834E+02   -0.37835E-04   -0.73031E-05    32   0.414E-02    0.823E-03
DAV:   6    -0.189896205373E+02   -0.22654E-04   -0.90433E-06    32   0.129E-02    0.266E-03
DAV:   7    -0.189896390513E+02   -0.18514E-04   -0.27291E-06    32   0.573E-03    0.124E-03
DAV:   8    -0.189896552756E+02   -0.16224E-04   -0.16799E-06    32   0.408E-03    0.659E-04
DAV:   9    -0.189896759504E+02   -0.20675E-04   -0.47893E-06    32   0.621E-03    0.415E-04
DAV:  10    -0.189896803330E+02   -0.43826E-05   -0.52546E-07    40   0.196E-03
  28 F= -.18989680E+02 E0= -.18989680E+02  d E =-.927693E-02
quench:  g(F)=  0.000E+00 g(S)=  0.000E+00 dE (1.order)= 0.000E+00
 bond charge predicted
       N       E                     dE             d eps       ncg     rms          rms(c)
DAV:   1    -0.189825179310E+02    0.71580E-02   -0.63949E-01    32   0.429E+00    0.251E-01
DAV:   2    -0.189824639101E+02    0.54021E-04   -0.53311E-03    40   0.359E-01    0.139E-01
DAV:   3    -0.189823091933E+02    0.15472E-03   -0.10888E-03    32   0.114E-01    0.294E-02
DAV:   4    -0.189823110705E+02   -0.18772E-05   -0.11598E-04    32   0.451E-02    0.148E-02
DAV:   5    -0.189823209596E+02   -0.98891E-05   -0.21976E-05    32   0.207E-02
  29 F= -.18982321E+02 E0= -.18982321E+02  d E =0.735937E-02
quench:  g(F)=  0.000E+00 g(S)=  0.000E+00 dE (1.order)= 0.000E+00
 bond charge predicted
       N       E                     dE             d eps       ncg     rms          rms(c)
DAV:   1    -0.189839041858E+02   -0.15931E-02   -0.17699E-02    32   0.729E-01    0.332E-02
DAV:   2    -0.189839105066E+02   -0.63208E-05   -0.24047E-04    40   0.756E-02    0.201E-02
DAV:   3    -0.189839099971E+02    0.50946E-06   -0.15335E-05    32   0.182E-02
  30 F= -.18983910E+02 E0= -.18983910E+02  d E =-.158904E-02
quench:  g(F)=  0.000E+00 g(S)=  0.000E+00 dE (1.order)= 0.000E+00
 bond charge predicted
       N       E                     dE             d eps       ncg     rms          rms(c)
DAV:   1    -0.189892006987E+02   -0.52902E-02   -0.10302E-01    32   0.174E+00    0.104E-01
DAV:   2    -0.189891896108E+02    0.11088E-04   -0.85996E-04    40   0.142E-01    0.559E-02
DAV:   3    -0.189891482411E+02    0.41370E-04   -0.17504E-04    32   0.533E-02    0.113E-02
DAV:   4    -0.189891485507E+02   -0.30961E-06   -0.10858E-05    32   0.158E-02
  31 F= -.18989149E+02 E0= -.18989149E+02  d E =-.523855E-02
quench:  g(F)=  0.000E+00 g(S)=  0.000E+00 dE (1.order)= 0.000E+00
 bond charge predicted
       N       E                     dE             d eps       ncg     rms          rms(c)
DAV:   1    -0.190222331687E+02   -0.33085E-01   -0.57402E+00    32   0.129E+01    0.699E-01
DAV:   2    -0.190210390105E+02    0.11942E-02   -0.45156E-02    40   0.105E+00    0.383E-01
DAV:   3    -0.190201779293E+02    0.86108E-03   -0.65275E-03    48   0.266E-01    0.787E-02
DAV:   4    -0.190202022592E+02   -0.24330E-04   -0.47189E-04    56   0.939E-02    0.363E-02
DAV:   5    -0.190202545449E+02   -0.52286E-04   -0.15667E-04    32   0.525E-02    0.108E-02
DAV:   6    -0.190203078157E+02   -0.53271E-04   -0.19114E-05    32   0.223E-02    0.319E-03
DAV:   7    -0.190203877652E+02   -0.79950E-04   -0.13013E-05    32   0.117E-02    0.173E-03
DAV:   8    -0.190204372436E+02   -0.49478E-04   -0.50773E-06    48   0.660E-03    0.127E-03
DAV:   9    -0.190204852674E+02   -0.48024E-04   -0.81190E-06    32   0.801E-03    0.116E-03
DAV:  10    -0.190205145451E+02   -0.29278E-04   -0.46979E-06    32   0.643E-03    0.484E-04
DAV:  11    -0.190205290221E+02   -0.14477E-04   -0.86064E-07    32   0.334E-03    0.306E-04
DAV:  12    -0.190205327054E+02   -0.36833E-05   -0.23305E-07    32   0.231E-03
  32 F= -.19020533E+02 E0= -.19020533E+02  d E =-.313842E-01
quench:  g(F)=  0.000E+00 g(S)=  0.000E+00 dE (1.order)= 0.000E+00
 bond charge predicted
       N       E                     dE             d eps       ncg     rms          rms(c)
DAV:   1    -0.189561113796E+02    0.64418E-01   -0.92766E+01    32   0.522E+01    0.231E+00
DAV:   2    -0.190143944579E+02   -0.58283E-01   -0.14789E+00    40   0.588E+00    0.136E+00
DAV:   3    -0.189995352540E+02    0.14859E-01   -0.45444E-02    48   0.807E-01    0.575E-01
DAV:   4    -0.189986436748E+02    0.89158E-03   -0.18336E-02    40   0.492E-01    0.133E-01
DAV:   5    -0.189986516246E+02   -0.79498E-05   -0.17609E-03    48   0.162E-01    0.726E-02
DAV:   6    -0.189988865136E+02   -0.23489E-03   -0.47263E-04    32   0.103E-01    0.162E-02
DAV:   7    -0.189991522088E+02   -0.26570E-03   -0.69561E-05    32   0.364E-02    0.762E-03
DAV:   8    -0.189995095531E+02   -0.35734E-03   -0.54726E-05    32   0.268E-02    0.356E-03
DAV:   9    -0.189997427740E+02   -0.23322E-03   -0.25495E-05    40   0.151E-02    0.229E-03
DAV:  10    -0.190000501597E+02   -0.30739E-03   -0.77970E-05    32   0.257E-02    0.143E-03
DAV:  11    -0.190000860787E+02   -0.35919E-04   -0.25139E-06    56   0.596E-03    0.827E-04
DAV:  12    -0.190001460544E+02   -0.59976E-04   -0.46957E-06    32   0.716E-03    0.441E-04
DAV:  13    -0.190001596935E+02   -0.13639E-04   -0.10160E-06    32   0.391E-03    0.388E-04
DAV:  14    -0.190001669133E+02   -0.72197E-05   -0.36554E-07    32   0.191E-03
  33 F= -.19000167E+02 E0= -.19000167E+02  d E =0.203658E-01
quench:  g(F)=  0.000E+00 g(S)=  0.000E+00 dE (1.order)= 0.000E+00
 bond charge predicted
       N       E                     dE             d eps       ncg     rms          rms(c)
DAV:   1    -0.190659295768E+02   -0.65770E-01   -0.34631E+01    32   0.322E+01    0.140E+00
DAV:   2    -0.190815076653E+02   -0.15578E-01   -0.43961E-01    56   0.336E+00    0.936E-01
DAV:   3    -0.190697445926E+02    0.11763E-01   -0.48863E-02    48   0.895E-01    0.354E-01
DAV:   4    -0.190694221616E+02    0.32243E-03   -0.11617E-02    40   0.471E-01    0.126E-01
DAV:   5    -0.190692694806E+02    0.15268E-03   -0.21019E-03    32   0.198E-01    0.584E-02
DAV:   6    -0.190694041214E+02   -0.13464E-03   -0.42832E-04    40   0.101E-01    0.144E-02
DAV:   7    -0.190696081836E+02   -0.20406E-03   -0.42238E-05    32   0.294E-02    0.443E-03
DAV:   8    -0.190697421538E+02   -0.13397E-03   -0.16297E-05    48   0.137E-02    0.264E-03
DAV:   9    -0.190699373983E+02   -0.19524E-03   -0.48831E-05    32   0.215E-02    0.152E-03
DAV:  10    -0.190699947786E+02   -0.57380E-04   -0.82974E-06    48   0.769E-03    0.920E-04
DAV:  11    -0.190700406022E+02   -0.45824E-04   -0.91418E-06    32   0.851E-03    0.791E-04
DAV:  12    -0.190700468066E+02   -0.62044E-05   -0.39689E-07    48   0.263E-03
  34 F= -.19070047E+02 E0= -.19070047E+02  d E =-.698799E-01
quench:  g(F)=  0.000E+00 g(S)=  0.000E+00 dE (1.order)= 0.000E+00
 bond charge predicted
       N       E                     dE             d eps       ncg     rms          rms(c)
DAV:   1    -0.186257930010E+02    0.44425E+00   -0.19664E+02    32   0.759E+01    0.343E+00
DAV:   2    -0.188342183912E+02   -0.20843E+00   -0.42317E+00    40   0.962E+00    0.230E+00
DAV:   3    -0.187855105826E+02    0.48708E-01   -0.14997E-01    48   0.134E+00    0.112E+00
DAV:   4    -0.187823058240E+02    0.32048E-02   -0.73232E-02    32   0.100E+00    0.271E-01
DAV:   5    -0.187821726852E+02    0.13314E-03   -0.81035E-03    40   0.351E-01    0.141E-01
DAV:   6    -0.187822983802E+02   -0.12569E-03   -0.20224E-03    32   0.194E-01    0.414E-02
DAV:   7    -0.187826178421E+02   -0.31946E-03   -0.35297E-04    48   0.853E-02    0.168E-02
DAV:   8    -0.187830978245E+02   -0.47998E-03   -0.22467E-04    32   0.668E-02    0.824E-03
DAV:   9    -0.187835903450E+02   -0.49252E-03   -0.12964E-04    32   0.439E-02    0.455E-03
DAV:  10    -0.187840839595E+02   -0.49361E-03   -0.19063E-04    32   0.428E-02    0.299E-03
DAV:  11    -0.187843100291E+02   -0.22607E-03   -0.53999E-05    40   0.231E-02    0.167E-03
DAV:  12    -0.187843788824E+02   -0.68853E-04   -0.43893E-06    48   0.863E-03    0.942E-04
DAV:  13    -0.187844416590E+02   -0.62777E-04   -0.82283E-06    32   0.944E-03    0.652E-04
DAV:  14    -0.187844619184E+02   -0.20259E-04   -0.15352E-06    32   0.372E-03    0.286E-04
DAV:  15    -0.187844711168E+02   -0.91983E-05   -0.20481E-07    32   0.175E-03
  35 F= -.18784471E+02 E0= -.18784471E+02  d E =0.285576E+00
quench:  g(F)=  0.000E+00 g(S)=  0.000E+00 dE (1.order)= 0.000E+00
 bond charge predicted
       N       E                     dE             d eps       ncg     rms          rms(c)
DAV:   1    -0.187023630269E+02    0.82099E-01   -0.23085E+02    32   0.817E+01    0.349E+00
DAV:   2    -0.191748837070E+02   -0.47252E+00   -0.64463E+00    32   0.117E+01    0.262E+00
DAV:   3    -0.191008257266E+02    0.74058E-01   -0.20203E-01    48   0.203E+00    0.159E+00
DAV:   4    -0.190773799850E+02    0.23446E-01   -0.33723E-01    48   0.214E+00    0.496E-01
DAV:   5    -0.190723251805E+02    0.50548E-02   -0.15362E-02    56   0.491E-01    0.290E-01
DAV:   6    -0.190716580403E+02    0.66714E-03   -0.18647E-02    32   0.554E-01    0.737E-02
DAV:   7    -0.190719369993E+02   -0.27896E-03   -0.86778E-04    56   0.147E-01    0.321E-02
DAV:   8    -0.190728819857E+02   -0.94499E-03   -0.29263E-04    32   0.747E-02    0.125E-02
DAV:   9    -0.190739214567E+02   -0.10395E-02   -0.31876E-04    48   0.686E-02    0.137E-02
DAV:  10    -0.190750637984E+02   -0.11423E-02   -0.50635E-04    32   0.763E-02    0.810E-03
DAV:  11    -0.190753039022E+02   -0.24010E-03   -0.60879E-05    48   0.273E-02    0.632E-03
DAV:  12    -0.190754400891E+02   -0.13619E-03   -0.23920E-05    32   0.197E-02    0.218E-03
DAV:  13    -0.190755289606E+02   -0.88872E-04   -0.94105E-06    32   0.119E-02    0.236E-03
DAV:  14    -0.190755821841E+02   -0.53223E-04   -0.35138E-06    56   0.677E-03    0.575E-04
DAV:  15    -0.190756062019E+02   -0.24018E-04   -0.12958E-06    32   0.356E-03    0.610E-04
DAV:  16    -0.190756147873E+02   -0.85855E-05   -0.34709E-07    48   0.178E-03
  36 F= -.19075615E+02 E0= -.19075615E+02  d E =-.291144E+00
quench:  g(F)=  0.000E+00 g(S)=  0.000E+00 dE (1.order)= 0.000E+00
 bond charge predicted
       N       E                     dE             d eps       ncg     rms          rms(c)
DAV:   1    -0.189420227327E+02    0.13358E+00   -0.29296E+01    32   0.291E+01    0.164E+00
DAV:   2    -0.189435377037E+02   -0.15150E-02   -0.46159E-01    48   0.339E+00    0.107E+00
DAV:   3    -0.189273935808E+02    0.16144E-01   -0.15382E-01    48   0.168E+00    0.268E-01
DAV:   4    -0.189265623255E+02    0.83126E-03   -0.63834E-03    48   0.405E-01    0.144E-01
DAV:   5    -0.189266771019E+02   -0.11478E-03   -0.18729E-03    32   0.205E-01    0.252E-02
DAV:   6    -0.189271080500E+02   -0.43095E-03   -0.12824E-04    48   0.614E-02    0.114E-02
DAV:   7    -0.189276611482E+02   -0.55310E-03   -0.73273E-05    32   0.361E-02    0.615E-03
DAV:   8    -0.189283544456E+02   -0.69330E-03   -0.16257E-04    40   0.457E-02    0.522E-03
DAV:   9    -0.189288501501E+02   -0.49570E-03   -0.12988E-04    48   0.376E-02    0.324E-03
DAV:  10    -0.189289853150E+02   -0.13516E-03   -0.22163E-05    40   0.167E-02    0.130E-03
DAV:  11    -0.189290464421E+02   -0.61127E-04   -0.41771E-06    48   0.919E-03    0.727E-04
DAV:  12    -0.189290838807E+02   -0.37439E-04   -0.24767E-06    40   0.674E-03    0.483E-04
DAV:  13    -0.189291004788E+02   -0.16598E-04   -0.87660E-07    40   0.317E-03    0.279E-04
DAV:  14    -0.189291061779E+02   -0.56992E-05   -0.19243E-07    32   0.146E-03
  37 F= -.18929106E+02 E0= -.18929106E+02  d E =0.146509E+00
quench:  g(F)=  0.000E+00 g(S)=  0.000E+00 dE (1.order)= 0.000E+00
 bond charge predicted
       N       E                     dE             d eps       ncg     rms          rms(c)
DAV:   1    -0.191094105123E+02   -0.18031E+00   -0.15788E+01    32   0.216E+01    0.138E+00
DAV:   2    -0.190884376819E+02    0.20973E-01   -0.23925E-01    48   0.244E+00    0.746E-01
DAV:   3    -0.190825020502E+02    0.59356E-02   -0.51657E-02    56   0.972E-01    0.213E-01
DAV:   4    -0.190823818935E+02    0.12016E-03   -0.44910E-03    48   0.291E-01    0.997E-02
DAV:   5    -0.190824036484E+02   -0.21755E-04   -0.54736E-04    32   0.110E-01    0.370E-02
DAV:   6    -0.190825360607E+02   -0.13241E-03   -0.99381E-05    32   0.574E-02    0.888E-03
DAV:   7    -0.190827847824E+02   -0.24872E-03   -0.43046E-05    32   0.256E-02    0.480E-03
DAV:   8    -0.190830613010E+02   -0.27652E-03   -0.49100E-05    56   0.244E-02    0.281E-03
DAV:   9    -0.190833207016E+02   -0.25940E-03   -0.59103E-05    32   0.242E-02    0.203E-03
DAV:  10    -0.190834351425E+02   -0.11444E-03   -0.14584E-05    56   0.114E-02    0.106E-03
DAV:  11    -0.190834873429E+02   -0.52200E-04   -0.43718E-06    32   0.765E-03    0.726E-04
DAV:  12    -0.190835076766E+02   -0.20334E-04   -0.13906E-06    32   0.609E-03    0.413E-04
DAV:  13    -0.190835208199E+02   -0.13143E-04   -0.12875E-06    32   0.446E-03    0.263E-04
DAV:  14    -0.190835239959E+02   -0.31759E-05   -0.14108E-07    48   0.142E-03
  38 F= -.19083524E+02 E0= -.19083524E+02  d E =-.154418E+00
quench:  g(F)=  0.000E+00 g(S)=  0.000E+00 dE (1.order)= 0.000E+00
 bond charge predicted
       N       E                     dE             d eps       ncg     rms          rms(c)
DAV:   1    -0.190688850872E+02    0.14636E-01   -0.18280E+00    32   0.740E+00    0.305E-01
DAV:   2    -0.190692425763E+02   -0.35749E-03   -0.13505E-02    40   0.606E-01    0.184E-01
DAV:   3    -0.190687741806E+02    0.46840E-03   -0.23649E-03    32   0.199E-01    0.370E-02
DAV:   4    -0.190687691158E+02    0.50648E-05   -0.19826E-04    48   0.637E-02    0.181E-02
DAV:   5    -0.190687735160E+02   -0.44002E-05   -0.30401E-05    32   0.248E-02
  39 F= -.19068774E+02 E0= -.19068774E+02  d E =0.147505E-01
quench:  g(F)=  0.000E+00 g(S)=  0.000E+00 dE (1.order)= 0.000E+00
 bond charge predicted
       N       E                     dE             d eps       ncg     rms          rms(c)
DAV:   1    -0.189668174393E+02    0.10195E+00   -0.54419E+01    32   0.400E+01    0.191E+00
DAV:   2    -0.189804142190E+02   -0.13597E-01   -0.60988E-01    40   0.378E+00    0.114E+00
DAV:   3    -0.189715189352E+02    0.88953E-02   -0.51252E-02    56   0.762E-01    0.300E-01
DAV:   4    -0.189721406972E+02   -0.62176E-03   -0.36867E-03    32   0.273E-01    0.109E-01
DAV:   5    -0.189721818618E+02   -0.41165E-04   -0.10123E-03    32   0.122E-01    0.403E-02
DAV:   6    -0.189723440672E+02   -0.16221E-03   -0.19388E-04    40   0.696E-02    0.138E-02
DAV:   7    -0.189725995193E+02   -0.25545E-03   -0.63200E-05    32   0.340E-02    0.665E-03
DAV:   8    -0.189728394810E+02   -0.23996E-03   -0.39927E-05    48   0.233E-02    0.376E-03
DAV:   9    -0.189731983185E+02   -0.35884E-03   -0.96917E-05    32   0.302E-02    0.202E-03
DAV:  10    -0.189733231379E+02   -0.12482E-03   -0.21281E-05    56   0.121E-02    0.149E-03
DAV:  11    -0.189734073050E+02   -0.84167E-04   -0.10142E-05    32   0.104E-02    0.873E-04
DAV:  12    -0.189734303765E+02   -0.23071E-04   -0.18436E-06    32   0.641E-03    0.622E-04
DAV:  13    -0.189734491928E+02   -0.18816E-04   -0.15072E-06    32   0.481E-03    0.346E-04
DAV:  14    -0.189734552376E+02   -0.60448E-05   -0.52919E-07    32   0.233E-03
  40 F= -.18973455E+02 E0= -.18973455E+02  d E =0.953183E-01
quench:  g(F)=  0.000E+00 g(S)=  0.000E+00 dE (1.order)= 0.000E+00
 bond charge predicted
       N       E                     dE             d eps       ncg     rms          rms(c)
DAV:   1    -0.189975226212E+02   -0.24073E-01   -0.37071E+00    32   0.104E+01    0.562E-01
DAV:   2    -0.189971864965E+02    0.33612E-03   -0.29563E-02    40   0.835E-01    0.320E-01
DAV:   3    -0.189964930226E+02    0.69347E-03   -0.58960E-03    48   0.268E-01    0.664E-02
DAV:   4    -0.189964800224E+02    0.13000E-04   -0.54256E-04    56   0.934E-02    0.339E-02
DAV:   5    -0.189965153185E+02   -0.35296E-04   -0.13110E-04    32   0.470E-02    0.130E-02
DAV:   6    -0.189965492263E+02   -0.33908E-04   -0.18953E-05    32   0.259E-02    0.274E-03
DAV:   7    -0.189965954484E+02   -0.46222E-04   -0.71148E-06    32   0.904E-03    0.138E-03
DAV:   8    -0.189966306768E+02   -0.35228E-04   -0.43147E-06    48   0.608E-03    0.105E-03
DAV:   9    -0.189966677727E+02   -0.37096E-04   -0.74567E-06    32   0.747E-03    0.644E-04
DAV:  10    -0.189966813429E+02   -0.13570E-04   -0.18345E-06    32   0.391E-03    0.339E-04
DAV:  11    -0.189966900452E+02   -0.87023E-05   -0.57322E-07    32   0.269E-03
  41 F= -.18996690E+02 E0= -.18996690E+02  d E =-.232348E-01
quench:  g(F)=  0.000E+00 g(S)=  0.000E+00 dE (1.order)= 0.000E+00
 bond charge predicted
       N       E                     dE             d eps       ncg     rms          rms(c)
DAV:   1    -0.190072086855E+02   -0.10527E-01   -0.30898E+00    32   0.970E+00    0.430E-01
DAV:   2    -0.190062478347E+02    0.96085E-03   -0.39849E-02    32   0.946E-01    0.269E-01
DAV:   3    -0.190048925154E+02    0.13553E-02   -0.49110E-03    48   0.322E-01    0.101E-01
DAV:   4    -0.190046100832E+02    0.28243E-03   -0.83294E-04    40   0.133E-01    0.344E-02
DAV:   5    -0.190046853279E+02   -0.75245E-04   -0.24816E-04    32   0.688E-02    0.149E-02
DAV:   6    -0.190047309028E+02   -0.45575E-04   -0.33050E-05    40   0.304E-02    0.443E-03
DAV:   7    -0.190048149352E+02   -0.84032E-04   -0.88509E-06    32   0.110E-02    0.227E-03
DAV:   8    -0.190049168938E+02   -0.10196E-03   -0.12001E-05    32   0.110E-02    0.160E-03
DAV:   9    -0.190050305808E+02   -0.11369E-03   -0.20497E-05    32   0.138E-02    0.866E-04
DAV:  10    -0.190050589056E+02   -0.28325E-04   -0.22054E-06    56   0.460E-03    0.572E-04
DAV:  11    -0.190050815612E+02   -0.22656E-04   -0.11150E-06    32   0.449E-03    0.390E-04
DAV:  12    -0.190050899544E+02   -0.83931E-05   -0.45549E-07    48   0.296E-03
  42 F= -.19005090E+02 E0= -.19005090E+02  d E =-.839991E-02
quench:  g(F)=  0.000E+00 g(S)=  0.000E+00 dE (1.order)= 0.000E+00
 bond charge predicted
       N       E                     dE             d eps       ncg     rms          rms(c)
DAV:   1    -0.189979388478E+02    0.71427E-02   -0.65943E+00    32   0.139E+01    0.796E-01
DAV:   2    -0.189929171043E+02    0.50217E-02   -0.83341E-02    40   0.133E+00    0.447E-01
DAV:   3    -0.189914831961E+02    0.14339E-02   -0.12022E-02    56   0.448E-01    0.161E-01
DAV:   4    -0.189914502738E+02    0.32922E-04   -0.15155E-03    32   0.166E-01    0.520E-02
DAV:   5    -0.189914886566E+02   -0.38383E-04   -0.30255E-04    32   0.815E-02    0.193E-02
DAV:   6    -0.189915677301E+02   -0.79074E-04   -0.55067E-05    32   0.382E-02    0.514E-03
DAV:   7    -0.189916348515E+02   -0.67121E-04   -0.10549E-05    32   0.120E-02    0.283E-03
DAV:   8    -0.189917375332E+02   -0.10268E-03   -0.17171E-05    32   0.137E-02    0.207E-03
DAV:   9    -0.189918467297E+02   -0.10920E-03   -0.31518E-05    32   0.162E-02    0.105E-03
DAV:  10    -0.189918745673E+02   -0.27838E-04   -0.30281E-06    48   0.452E-03    0.628E-04
DAV:  11    -0.189919002658E+02   -0.25699E-04   -0.13126E-06    32   0.396E-03    0.444E-04
DAV:  12    -0.189919110459E+02   -0.10780E-04   -0.54233E-07    32   0.318E-03    0.222E-04
DAV:  13    -0.189919177399E+02   -0.66940E-05   -0.39424E-07    32   0.254E-03
  43 F= -.18991918E+02 E0= -.18991918E+02  d E =0.131722E-01
quench:  g(F)=  0.000E+00 g(S)=  0.000E+00 dE (1.order)= 0.000E+00
 bond charge predicted
       N       E                     dE             d eps       ncg     rms          rms(c)
DAV:   1    -0.188888656362E+02    0.10305E+00   -0.36263E+01    32   0.329E+01    0.162E+00
DAV:   2    -0.188859695995E+02    0.28960E-02   -0.37921E-01    40   0.296E+00    0.922E-01
DAV:   3    -0.188793389907E+02    0.66306E-02   -0.33045E-02    48   0.654E-01    0.205E-01
DAV:   4    -0.188797199106E+02   -0.38092E-03   -0.24274E-03    40   0.238E-01    0.796E-02
DAV:   5    -0.188798055037E+02   -0.85593E-04   -0.48663E-04    32   0.994E-02    0.185E-02
DAV:   6    -0.188799543335E+02   -0.14883E-03   -0.53413E-05    48   0.373E-02    0.781E-03
DAV:   7    -0.188801541371E+02   -0.19980E-03   -0.33960E-05    32   0.229E-02    0.483E-03
DAV:   8    -0.188804724560E+02   -0.31832E-03   -0.87005E-05    32   0.324E-02    0.330E-03
DAV:   9    -0.188806701109E+02   -0.19765E-03   -0.46021E-05    40   0.196E-02    0.148E-03
DAV:  10    -0.188807669841E+02   -0.96873E-04   -0.13484E-05    40   0.109E-02    0.955E-04
DAV:  11    -0.188808035967E+02   -0.36613E-04   -0.33787E-06    32   0.772E-03    0.623E-04
DAV:  12    -0.188808239057E+02   -0.20309E-04   -0.12832E-06    40   0.472E-03    0.407E-04
DAV:  13    -0.188808294582E+02   -0.55526E-05   -0.49073E-07    32   0.242E-03
  44 F= -.18880829E+02 E0= -.18880829E+02  d E =0.111088E+00
quench:  g(F)=  0.000E+00 g(S)=  0.000E+00 dE (1.order)= 0.000E+00
 bond charge predicted
       N       E                     dE             d eps       ncg     rms          rms(c)
DAV:   1    -0.189743542907E+02   -0.93530E-01   -0.94209E+01    32   0.522E+01    0.258E+00
DAV:   2    -0.190525155843E+02   -0.78161E-01   -0.15977E+00    32   0.591E+00    0.166E+00
DAV:   3    -0.190279187482E+02    0.24597E-01   -0.92892E-02    56   0.124E+00    0.711E-01
DAV:   4    -0.190270039969E+02    0.91475E-03   -0.36310E-02    48   0.664E-01    0.201E-01
DAV:   5    -0.190268023824E+02    0.20161E-03   -0.32031E-03    32   0.208E-01    0.106E-01
DAV:   6    -0.190275349516E+02   -0.73257E-03   -0.15526E-03    40   0.181E-01    0.243E-02
DAV:   7    -0.190280200411E+02   -0.48509E-03   -0.23311E-04    48   0.672E-02    0.114E-02
DAV:   8    -0.190286264479E+02   -0.60641E-03   -0.10029E-04    32   0.371E-02    0.745E-03
DAV:   9    -0.190292877479E+02   -0.66130E-03   -0.13041E-04    48   0.365E-02    0.544E-03
DAV:  10    -0.190297863280E+02   -0.49858E-03   -0.13225E-04    32   0.341E-02    0.276E-03
DAV:  11    -0.190299041973E+02   -0.11787E-03   -0.19315E-05    48   0.150E-02    0.205E-03
DAV:  12    -0.190299892831E+02   -0.85086E-04   -0.75379E-06    32   0.103E-02    0.799E-04
DAV:  13    -0.190300241959E+02   -0.34913E-04   -0.27147E-06    32   0.593E-03    0.733E-04
DAV:  14    -0.190300416558E+02   -0.17460E-04   -0.98259E-07    32   0.337E-03    0.455E-04
DAV:  15    -0.190300480284E+02   -0.63726E-05   -0.34774E-07    48   0.171E-03
  45 F= -.19030048E+02 E0= -.19030048E+02  d E =-.149219E+00
quench:  g(F)=  0.000E+00 g(S)=  0.000E+00 dE (1.order)= 0.000E+00
 bond charge predicted
       N       E                     dE             d eps       ncg     rms          rms(c)
DAV:   1    -0.178056914554E+02    0.12244E+01   -0.73559E+01    40   0.464E+01    0.292E+00
DAV:   2    -0.177076360776E+02    0.98055E-01   -0.17869E+00    40   0.623E+00    0.166E+00
DAV:   3    -0.176743880583E+02    0.33248E-01   -0.91888E-02    40   0.150E+00    0.725E-01
DAV:   4    -0.176698597497E+02    0.45283E-02   -0.25310E-02    40   0.742E-01    0.142E-01
DAV:   5    -0.176705589206E+02   -0.69917E-03   -0.28564E-03    48   0.265E-01    0.648E-02
DAV:   6    -0.176711390326E+02   -0.58011E-03   -0.55273E-04    32   0.114E-01    0.197E-02
DAV:   7    -0.176715736461E+02   -0.43461E-03   -0.92787E-05    40   0.475E-02    0.106E-02
DAV:   8    -0.176721860373E+02   -0.61239E-03   -0.11517E-04    32   0.514E-02    0.504E-03
DAV:   9    -0.176724709348E+02   -0.28490E-03   -0.29401E-05    40   0.211E-02    0.356E-03
DAV:  10    -0.176728833486E+02   -0.41241E-03   -0.11731E-04    32   0.393E-02    0.172E-03
DAV:  11    -0.176729641169E+02   -0.80768E-04   -0.78967E-06    32   0.115E-02    0.124E-03
DAV:  12    -0.176730163122E+02   -0.52195E-04   -0.37296E-06    32   0.870E-03    0.705E-04
DAV:  13    -0.176730318962E+02   -0.15584E-04   -0.92039E-07    32   0.356E-03    0.408E-04
DAV:  14    -0.176730433536E+02   -0.11457E-04   -0.92624E-07    32   0.317E-03    0.310E-04
DAV:  15    -0.176730456079E+02   -0.22543E-05   -0.64778E-08    32   0.150E-03
  46 F= -.17673046E+02 E0= -.17673046E+02  d E =0.135700E+01
quench:  g(F)=  0.000E+00 g(S)=  0.000E+00 dE (1.order)= 0.000E+00
 bond charge predicted
       N       E                     dE             d eps       ncg     rms          rms(c)
DAV:   1    -0.185363813311E+02   -0.86334E+00   -0.92146E+01    48   0.522E+01    0.397E+00
DAV:   2    -0.182326735630E+02    0.30371E+00   -0.38573E+00    48   0.816E+00    0.203E+00
DAV:   3    -0.181585759590E+02    0.74098E-01   -0.22339E-01    56   0.236E+00    0.982E-01
DAV:   4    -0.181452994252E+02    0.13277E-01   -0.66373E-02    56   0.134E+00    0.282E-01
DAV:   5    -0.181445167927E+02    0.78263E-03   -0.15363E-02    48   0.511E-01    0.134E-01
DAV:   6    -0.181443958820E+02    0.12091E-03   -0.19535E-03    56   0.187E-01    0.521E-02
DAV:   7    -0.181450365790E+02   -0.64070E-03   -0.58767E-04    32   0.107E-01    0.186E-02
DAV:   8    -0.181461447341E+02   -0.11082E-02   -0.27659E-04    40   0.699E-02    0.104E-02
DAV:   9    -0.181479272283E+02   -0.17825E-02   -0.88953E-04    32   0.102E-01    0.105E-02
DAV:  10    -0.181483088451E+02   -0.38162E-03   -0.13246E-04    56   0.426E-02    0.573E-03
DAV:  11    -0.181485335429E+02   -0.22470E-03   -0.46133E-05    48   0.261E-02    0.324E-03
DAV:  12    -0.181486556453E+02   -0.12210E-03   -0.84004E-06    32   0.119E-02    0.137E-03
DAV:  13    -0.181487329650E+02   -0.77320E-04   -0.46284E-06    64   0.798E-03    0.669E-04
DAV:  14    -0.181487558885E+02   -0.22924E-04   -0.79548E-07    32   0.278E-03    0.467E-04
DAV:  15    -0.181487668565E+02   -0.10968E-04   -0.34602E-07    32   0.173E-03    0.203E-04
DAV:  16    -0.181487698457E+02   -0.29893E-05   -0.51774E-08    48   0.794E-04
  47 F= -.18148770E+02 E0= -.18148770E+02  d E =-.475724E+00
quench:  g(F)=  0.000E+00 g(S)=  0.000E+00 dE (1.order)= 0.000E+00
 bond charge predicted
       N       E                     dE             d eps       ncg     rms          rms(c)
DAV:   1    -0.191499174507E+02   -0.10012E+01   -0.18038E+01    32   0.244E+01    0.186E+00
DAV:   2    -0.190550405323E+02    0.94877E-01   -0.53325E-01    48   0.332E+00    0.901E-01
DAV:   3    -0.190413622009E+02    0.13678E-01   -0.10592E-01    64   0.149E+00    0.275E-01
DAV:   4    -0.190412710723E+02    0.91129E-04   -0.38697E-03    56   0.300E-01    0.128E-01
DAV:   5    -0.190413297526E+02   -0.58680E-04   -0.69708E-04    32   0.131E-01    0.285E-02
DAV:   6    -0.190415032614E+02   -0.17351E-03   -0.87048E-05    56   0.453E-02    0.108E-02
DAV:   7    -0.190417725895E+02   -0.26933E-03   -0.70522E-05    32   0.334E-02    0.646E-03
DAV:   8    -0.190422651293E+02   -0.49254E-03   -0.16265E-04    40   0.456E-02    0.673E-03
DAV:   9    -0.190425458465E+02   -0.28072E-03   -0.63333E-05    56   0.269E-02    0.224E-03
DAV:  10    -0.190426185178E+02   -0.72671E-04   -0.43614E-06    64   0.689E-03    0.145E-03
DAV:  11    -0.190427234131E+02   -0.10490E-03   -0.72284E-06    40   0.848E-03    0.966E-04
DAV:  12    -0.190427654468E+02   -0.42034E-04   -0.19428E-06    48   0.665E-03    0.682E-04
DAV:  13    -0.190427883744E+02   -0.22928E-04   -0.16053E-06    32   0.524E-03    0.315E-04
DAV:  14    -0.190427934641E+02   -0.50897E-05   -0.32878E-07    48   0.207E-03
  48 F= -.19042793E+02 E0= -.19042793E+02  d E =-.894024E+00
quench:  g(F)=  0.000E+00 g(S)=  0.000E+00 dE (1.order)= 0.000E+00
 bond charge predicted
       N       E                     dE             d eps       ncg     rms          rms(c)
DAV:   1    -0.190489946463E+02   -0.62063E-02   -0.19488E+01    32   0.248E+01    0.177E+00
DAV:   2    -0.189617752410E+02    0.87219E-01   -0.74377E-01    40   0.356E+00    0.924E-01
DAV:   3    -0.189482064899E+02    0.13569E-01   -0.10425E-01    64   0.136E+00    0.371E-01
DAV:   4    -0.189463248804E+02    0.18816E-02   -0.12830E-02    48   0.548E-01    0.129E-01
DAV:   5    -0.189465477924E+02   -0.22291E-03   -0.15872E-03    32   0.203E-01    0.301E-02
DAV:   6    -0.189467398748E+02   -0.19208E-03   -0.90054E-05    48   0.486E-02    0.133E-02
DAV:   7    -0.189471023740E+02   -0.36250E-03   -0.91034E-05    32   0.397E-02    0.735E-03
DAV:   8    -0.189476770396E+02   -0.57467E-03   -0.14697E-04    32   0.467E-02    0.634E-03
DAV:   9    -0.189480969928E+02   -0.41995E-03   -0.10643E-04    32   0.339E-02    0.393E-03
DAV:  10    -0.189482565008E+02   -0.15951E-03   -0.19333E-05    56   0.166E-02    0.237E-03
DAV:  11    -0.189483741993E+02   -0.11770E-03   -0.87704E-06    32   0.113E-02    0.169E-03
DAV:  12    -0.189484194132E+02   -0.45214E-04   -0.26014E-06    48   0.831E-03    0.910E-04
DAV:  13    -0.189484495215E+02   -0.30108E-04   -0.22981E-06    32   0.649E-03    0.452E-04
DAV:  14    -0.189484542580E+02   -0.47366E-05   -0.20792E-07    56   0.172E-03
  49 F= -.18948454E+02 E0= -.18948454E+02  d E =0.943392E-01
quench:  g(F)=  0.000E+00 g(S)=  0.000E+00 dE (1.order)= 0.000E+00
 bond charge predicted
       N       E                     dE             d eps       ncg     rms          rms(c)
DAV:   1    -0.189648533976E+02   -0.16404E-01   -0.47850E+00    48   0.122E+01    0.486E-01
DAV:   2    -0.189643618653E+02    0.49153E-03   -0.72365E-02    32   0.121E+00    0.242E-01
DAV:   3    -0.189637468413E+02    0.61502E-03   -0.32532E-03    56   0.247E-01    0.134E-01
DAV:   4    -0.189632473532E+02    0.49949E-03   -0.95742E-04    40   0.166E-01    0.237E-02
DAV:   5    -0.189632934823E+02   -0.46129E-04   -0.10223E-04    48   0.489E-02    0.139E-02
DAV:   6    -0.189633883678E+02   -0.94886E-04   -0.24067E-05    32   0.212E-02    0.467E-03
DAV:   7    -0.189634662383E+02   -0.77871E-04   -0.10126E-05    48   0.129E-02    0.212E-03
DAV:   8    -0.189636072792E+02   -0.14104E-03   -0.26915E-05    32   0.169E-02    0.103E-03
DAV:   9    -0.189636622282E+02   -0.54949E-04   -0.81233E-06    40   0.889E-03    0.804E-04
DAV:  10    -0.189637112885E+02   -0.49060E-04   -0.42660E-06    40   0.728E-03    0.466E-04
DAV:  11    -0.189637166980E+02   -0.54095E-05   -0.11358E-07    48   0.184E-03
  50 F= -.18963717E+02 E0= -.18963717E+02  d E =-.152624E-01
quench:  g(F)=  0.000E+00 g(S)=  0.000E+00 dE (1.order)= 0.000E+00
 bond charge predicted
       N       E                     dE             d eps       ncg     rms          rms(c)
DAV:   1    -0.190705695861E+02   -0.10686E+00   -0.41738E+00    32   0.113E+01    0.574E-01
DAV:   2    -0.190642994301E+02    0.62702E-02   -0.12784E-01    48   0.147E+00    0.315E-01
DAV:   3    -0.190622853645E+02    0.20141E-02   -0.83209E-03    56   0.439E-01    0.151E-01
DAV:   4    -0.190615032671E+02    0.78210E-03   -0.33260E-03    40   0.278E-01    0.514E-02
DAV:   5    -0.190615112518E+02   -0.79847E-05   -0.48254E-04    48   0.894E-02    0.188E-02
DAV:   6    -0.190616316514E+02   -0.12040E-03   -0.46577E-05    32   0.318E-02    0.848E-03
DAV:   7    -0.190617966459E+02   -0.16499E-03   -0.23984E-05    32   0.199E-02    0.336E-03
DAV:   8    -0.190620304515E+02   -0.23381E-03   -0.34455E-05    40   0.185E-02    0.224E-03
DAV:   9    -0.190621979520E+02   -0.16750E-03   -0.27219E-05    56   0.170E-02    0.187E-03
DAV:  10    -0.190622898899E+02   -0.91938E-04   -0.12470E-05    40   0.114E-02    0.810E-04
DAV:  11    -0.190623136671E+02   -0.23777E-04   -0.10322E-06    48   0.550E-03    0.535E-04
DAV:  12    -0.190623357966E+02   -0.22130E-04   -0.10857E-06    32   0.516E-03    0.364E-04
DAV:  13    -0.190623396148E+02   -0.38182E-05   -0.13050E-07    48   0.159E-03
  51 F= -.19062340E+02 E0= -.19062340E+02  d E =-.986229E-01
quench:  g(F)=  0.000E+00 g(S)=  0.000E+00 dE (1.order)= 0.000E+00
 bond charge predicted
       N       E                     dE             d eps       ncg     rms          rms(c)
DAV:   1    -0.191166978788E+02   -0.54362E-01   -0.15373E+00    32   0.700E+00    0.458E-01
DAV:   2    -0.191124135958E+02    0.42843E-02   -0.35311E-02    40   0.910E-01    0.263E-01
DAV:   3    -0.191108972667E+02    0.15163E-02   -0.80689E-03    48   0.414E-01    0.817E-02
DAV:   4    -0.191107940808E+02    0.10319E-03   -0.54818E-04    48   0.112E-01    0.381E-02
DAV:   5    -0.191108687317E+02   -0.74651E-04   -0.18441E-04    32   0.613E-02    0.128E-02
DAV:   6    -0.191108998751E+02   -0.31143E-04   -0.31348E-05    40   0.249E-02    0.420E-03
DAV:   7    -0.191109921111E+02   -0.92236E-04   -0.12104E-05    32   0.141E-02    0.175E-03
DAV:   8    -0.191110593495E+02   -0.67238E-04   -0.81274E-06    48   0.901E-03    0.134E-03
DAV:   9    -0.191111417345E+02   -0.82385E-04   -0.21029E-05    40   0.142E-02    0.686E-04
DAV:  10    -0.191111515589E+02   -0.98244E-05   -0.28720E-07    48   0.217E-03
  52 F= -.19111152E+02 E0= -.19111152E+02  d E =-.488119E-01
quench:  g(F)=  0.000E+00 g(S)=  0.000E+00 dE (1.order)= 0.000E+00
 bond charge predicted
       N       E                     dE             d eps       ncg     rms          rms(c)
DAV:   1    -0.191120779453E+02   -0.93621E-03   -0.12030E-01    32   0.186E+00    0.462E-02
DAV:   2    -0.191121388565E+02   -0.60911E-04   -0.97556E-04    40   0.161E-01    0.307E-02
DAV:   3    -0.191121175718E+02    0.21285E-04   -0.36955E-05    48   0.304E-02    0.116E-02
DAV:   4    -0.191121140748E+02    0.34970E-05   -0.13089E-05    32   0.190E-02
  53 F= -.19112114E+02 E0= -.19112114E+02  d E =-.962516E-03
quench:  g(F)=  0.000E+00 g(S)=  0.000E+00 dE (1.order)= 0.000E+00
 bond charge predicted
       N       E                     dE             d eps       ncg     rms          rms(c)
DAV:   1    -0.191228301132E+02   -0.10713E-01   -0.32753E-01    32   0.318E+00    0.121E-01
DAV:   2    -0.191228247377E+02    0.53755E-05   -0.30104E-03    48   0.291E-01    0.709E-02
DAV:   3    -0.191227315725E+02    0.93165E-04   -0.34955E-04    40   0.870E-02    0.217E-02
DAV:   4    -0.191227301051E+02    0.14673E-05   -0.71871E-05    32   0.302E-02
  54 F= -.19122730E+02 E0= -.19122730E+02  d E =-.106160E-01
quench:  g(F)=  0.000E+00 g(S)=  0.000E+00 dE (1.order)= 0.000E+00
 bond charge predicted
       N       E                     dE             d eps       ncg     rms          rms(c)
DAV:   1    -0.191318769416E+02   -0.91454E-02   -0.25288E-01    48   0.279E+00    0.185E-01
DAV:   2    -0.191314762279E+02    0.40071E-03   -0.59051E-03    40   0.341E-01    0.883E-02
DAV:   3    -0.191314089257E+02    0.67302E-04   -0.26880E-04    32   0.763E-02    0.423E-02
DAV:   4    -0.191314143953E+02   -0.54696E-05   -0.91825E-05    32   0.447E-02
  55 F= -.19131414E+02 E0= -.19131414E+02  d E =-.868429E-02
quench:  g(F)=  0.000E+00 g(S)=  0.000E+00 dE (1.order)= 0.000E+00
 bond charge predicted
       N       E                     dE             d eps       ncg     rms          rms(c)
DAV:   1    -0.191264915445E+02    0.49174E-02   -0.60088E-01    48   0.421E+00    0.323E-01
DAV:   2    -0.191252603077E+02    0.12312E-02   -0.10299E-02    40   0.462E-01    0.169E-01
DAV:   3    -0.191249042396E+02    0.35607E-03   -0.20652E-03    40   0.198E-01    0.523E-02
DAV:   4    -0.191249338254E+02   -0.29586E-04   -0.15871E-04    32   0.515E-02    0.243E-02
DAV:   5    -0.191249673834E+02   -0.33558E-04   -0.82597E-05    32   0.409E-02    0.951E-03
DAV:   6    -0.191249902276E+02   -0.22844E-04   -0.18288E-05    40   0.162E-02    0.297E-03
DAV:   7    -0.191250262855E+02   -0.36058E-04   -0.60245E-06    32   0.101E-02    0.783E-04
DAV:   8    -0.191250369311E+02   -0.10646E-04   -0.62028E-07    48   0.279E-03    0.653E-04
DAV:   9    -0.191250593613E+02   -0.22430E-04   -0.35269E-06    32   0.644E-03    0.277E-04
DAV:  10    -0.191250635738E+02   -0.42124E-05   -0.34104E-07    56   0.192E-03
  56 F= -.19125064E+02 E0= -.19125064E+02  d E =0.635082E-02
quench:  g(F)=  0.000E+00 g(S)=  0.000E+00 dE (1.order)= 0.000E+00
 bond charge predicted
       N       E                     dE             d eps       ncg     rms          rms(c)
DAV:   1    -0.190983836203E+02    0.26676E-01   -0.12658E+00    48   0.621E+00    0.290E-01
DAV:   2    -0.190975613726E+02    0.82225E-03   -0.21301E-02    40   0.661E-01    0.138E-01
DAV:   3    -0.190973480954E+02    0.21328E-03   -0.59568E-04    48   0.125E-01    0.716E-02
DAV:   4    -0.190972835145E+02    0.64581E-04   -0.27510E-04    32   0.863E-02    0.145E-02
DAV:   5    -0.190973053400E+02   -0.21825E-04   -0.50365E-05    32   0.299E-02    0.736E-03
DAV:   6    -0.190973289948E+02   -0.23655E-04   -0.70192E-06    32   0.118E-02    0.295E-03
DAV:   7    -0.190973511256E+02   -0.22131E-04   -0.38465E-06    32   0.822E-03    0.111E-03
DAV:   8    -0.190973763067E+02   -0.25181E-04   -0.60740E-06    32   0.862E-03    0.548E-04
DAV:   9    -0.190973869703E+02   -0.10664E-04   -0.31794E-06    32   0.584E-03    0.440E-04
DAV:  10    -0.190973918711E+02   -0.49008E-05   -0.90233E-07    32   0.302E-03
  57 F= -.19097392E+02 E0= -.19097392E+02  d E =0.276717E-01
quench:  g(F)=  0.000E+00 g(S)=  0.000E+00 dE (1.order)= 0.000E+00
 bond charge predicted
       N       E                     dE             d eps       ncg     rms          rms(c)
DAV:   1    -0.191064385740E+02   -0.90516E-02   -0.34584E+00    32   0.100E+01    0.386E-01
DAV:   2    -0.191054870524E+02    0.95152E-03   -0.46056E-02    64   0.101E+00    0.224E-01
DAV:   3    -0.191044689564E+02    0.10181E-02   -0.24628E-03    40   0.236E-01    0.106E-01
DAV:   4    -0.191040520288E+02    0.41693E-03   -0.10546E-03    40   0.175E-01    0.259E-02
DAV:   5    -0.191041043119E+02   -0.52283E-04   -0.19759E-04    32   0.666E-02    0.107E-02
DAV:   6    -0.191041433393E+02   -0.39027E-04   -0.16617E-05    32   0.168E-02    0.463E-03
DAV:   7    -0.191042107097E+02   -0.67370E-04   -0.87390E-06    32   0.120E-02    0.222E-03
DAV:   8    -0.191042805005E+02   -0.69791E-04   -0.75034E-06    32   0.910E-03    0.119E-03
DAV:   9    -0.191043722116E+02   -0.91711E-04   -0.20547E-05    32   0.143E-02    0.766E-04
DAV:  10    -0.191043895595E+02   -0.17348E-04   -0.11514E-06    48   0.365E-03    0.437E-04
DAV:  11    -0.191044050897E+02   -0.15530E-04   -0.47658E-07    32   0.349E-03    0.271E-04
DAV:  12    -0.191044117402E+02   -0.66505E-05   -0.20252E-07    32   0.226E-03
  58 F= -.19104412E+02 E0= -.19104412E+02  d E =-.701987E-02
quench:  g(F)=  0.000E+00 g(S)=  0.000E+00 dE (1.order)= 0.000E+00
 bond charge predicted
       N       E                     dE             d eps       ncg     rms          rms(c)
DAV:   1    -0.191133177032E+02   -0.89126E-02   -0.45711E+00    32   0.117E+01    0.412E-01
DAV:   2    -0.191131617401E+02    0.15596E-03   -0.44077E-02    56   0.109E+00    0.249E-01
DAV:   3    -0.191117716639E+02    0.13901E-02   -0.50276E-03    56   0.334E-01    0.742E-02
DAV:   4    -0.191116923280E+02    0.79336E-04   -0.61691E-04    56   0.103E-01    0.304E-02
DAV:   5    -0.191117097975E+02   -0.17469E-04   -0.50791E-05    32   0.350E-02    0.144E-02
DAV:   6    -0.191117549520E+02   -0.45155E-04   -0.24460E-05    32   0.266E-02    0.438E-03
DAV:   7    -0.191118150116E+02   -0.60060E-04   -0.13987E-05    40   0.142E-02    0.228E-03
DAV:   8    -0.191118675763E+02   -0.52565E-04   -0.11612E-05    40   0.123E-02    0.140E-03
DAV:   9    -0.191119153577E+02   -0.47781E-04   -0.16850E-05    40   0.132E-02    0.763E-04
DAV:  10    -0.191119284878E+02   -0.13130E-04   -0.19448E-06    40   0.436E-03    0.459E-04
DAV:  11    -0.191119404572E+02   -0.11969E-04   -0.84015E-07    32   0.310E-03    0.243E-04
DAV:  12    -0.191119430538E+02   -0.25966E-05   -0.80458E-08    48   0.108E-03
  59 F= -.19111943E+02 E0= -.19111943E+02  d E =-.753131E-02
quench:  g(F)=  0.000E+00 g(S)=  0.000E+00 dE (1.order)= 0.000E+00
 bond charge predicted
       N       E                     dE             d eps       ncg     rms          rms(c)
DAV:   1    -0.190999885213E+02    0.11952E-01   -0.91316E-01    32   0.542E+00    0.287E-01
DAV:   2    -0.190983006315E+02    0.16879E-02   -0.18354E-02    40   0.640E-01    0.164E-01
DAV:   3    -0.190977147602E+02    0.58587E-03   -0.28948E-03    56   0.254E-01    0.596E-02
DAV:   4    -0.190976351529E+02    0.79607E-04   -0.22451E-04    48   0.842E-02    0.232E-02
DAV:   5    -0.190976418896E+02   -0.67366E-05   -0.63984E-05    32   0.360E-02
  60 F= -.19097642E+02 E0= -.19097642E+02  d E =0.143012E-01
quench:  g(F)=  0.000E+00 g(S)=  0.000E+00 dE (1.order)= 0.000E+00
 bond charge predicted
       N       E                     dE             d eps       ncg     rms          rms(c)
DAV:   1    -0.191050395056E+02   -0.74044E-02   -0.15485E-01    32   0.218E+00    0.890E-02
DAV:   2    -0.191050324942E+02    0.70114E-05   -0.25515E-03    32   0.235E-01    0.526E-02
DAV:   3    -0.191049839764E+02    0.48518E-04   -0.21208E-04    56   0.725E-02    0.222E-02
DAV:   4    -0.191049853452E+02   -0.13689E-05   -0.54712E-05    40   0.377E-02
  61 F= -.19104985E+02 E0= -.19104985E+02  d E =-.734346E-02
quench:  g(F)=  0.000E+00 g(S)=  0.000E+00 dE (1.order)= 0.000E+00
 bond charge predicted
       N       E                     dE             d eps       ncg     rms          rms(c)
DAV:   1    -0.191149630205E+02   -0.99790E-02   -0.72856E-01    32   0.483E+00    0.243E-01
DAV:   2    -0.191139025218E+02    0.10605E-02   -0.12720E-02    48   0.553E-01    0.146E-01
DAV:   3    -0.191133677114E+02    0.53481E-03   -0.22163E-03    56   0.225E-01    0.496E-02
DAV:   4    -0.191133082357E+02    0.59476E-04   -0.20788E-04    40   0.717E-02    0.206E-02
DAV:   5    -0.191133264307E+02   -0.18195E-04   -0.53137E-05    32   0.333E-02    0.800E-03
DAV:   6    -0.191133407625E+02   -0.14332E-04   -0.90600E-06    48   0.148E-02    0.251E-03
DAV:   7    -0.191133660316E+02   -0.25269E-04   -0.29633E-06    32   0.636E-03    0.154E-03
DAV:   8    -0.191133983059E+02   -0.32274E-04   -0.47633E-06    40   0.724E-03    0.102E-03
DAV:   9    -0.191134294566E+02   -0.31151E-04   -0.63925E-06    32   0.798E-03    0.726E-04
DAV:  10    -0.191134372862E+02   -0.78297E-05   -0.78629E-07    56   0.278E-03
  62 F= -.19113437E+02 E0= -.19113437E+02  d E =-.845194E-02
quench:  g(F)=  0.000E+00 g(S)=  0.000E+00 dE (1.order)= 0.000E+00
 bond charge predicted
       N       E                     dE             d eps       ncg     rms          rms(c)
DAV:   1    -0.191133573734E+02    0.72083E-04   -0.77603E-02    32   0.146E+00    0.106E-01
DAV:   2    -0.191131162768E+02    0.24110E-03   -0.32180E-03    32   0.230E-01    0.494E-02
DAV:   3    -0.191130898000E+02    0.26477E-04   -0.14417E-04    48   0.644E-02    0.260E-02
DAV:   4    -0.191130869463E+02    0.28536E-05   -0.60218E-05    32   0.388E-02
  63 F= -.19113087E+02 E0= -.19113087E+02  d E =0.350340E-03
quench:  g(F)=  0.000E+00 g(S)=  0.000E+00 dE (1.order)= 0.000E+00
 bond charge predicted
       N       E                     dE             d eps       ncg     rms          rms(c)
DAV:   1    -0.191123584911E+02    0.73131E-03   -0.29681E-02    32   0.956E-01    0.420E-02
DAV:   2    -0.191123405492E+02    0.17942E-04   -0.46463E-04    40   0.104E-01    0.231E-02
DAV:   3    -0.191123296769E+02    0.10872E-04   -0.42916E-05    32   0.324E-02    0.847E-03
DAV:   4    -0.191123299084E+02   -0.23149E-06   -0.68474E-06    32   0.143E-02
  64 F= -.19112330E+02 E0= -.19112330E+02  d E =0.757038E-03
quench:  g(F)=  0.000E+00 g(S)=  0.000E+00 dE (1.order)= 0.000E+00
 bond charge predicted
       N       E                     dE             d eps       ncg     rms          rms(c)
DAV:   1    -0.191053052647E+02    0.70244E-02   -0.87786E-01    32   0.501E+00    0.124E-01
DAV:   2    -0.191056707204E+02   -0.36546E-03   -0.58008E-03    48   0.412E-01    0.813E-02
DAV:   3    -0.191054635186E+02    0.20720E-03   -0.32974E-04    40   0.914E-02    0.184E-02
DAV:   4    -0.191054591921E+02    0.43265E-05   -0.57127E-05    32   0.386E-02
  65 F= -.19105459E+02 E0= -.19105459E+02  d E =0.687072E-02
quench:  g(F)=  0.000E+00 g(S)=  0.000E+00 dE (1.order)= 0.000E+00
 bond charge predicted
       N       E                     dE             d eps       ncg     rms          rms(c)
DAV:   1    -0.190867438724E+02    0.18720E-01   -0.32664E+00    32   0.973E+00    0.247E-01
DAV:   2    -0.190879929346E+02   -0.12491E-02   -0.23277E-02    48   0.805E-01    0.158E-01
DAV:   3    -0.190873217087E+02    0.67123E-03   -0.11183E-03    40   0.164E-01    0.430E-02
DAV:   4    -0.190872947831E+02    0.26926E-04   -0.24262E-04    48   0.776E-02    0.152E-02
DAV:   5    -0.190873369671E+02   -0.42184E-04   -0.19544E-05    32   0.211E-02    0.943E-03
DAV:   6    -0.190874301791E+02   -0.93212E-04   -0.22237E-05    32   0.211E-02    0.278E-03
DAV:   7    -0.190874994961E+02   -0.69317E-04   -0.96711E-06    40   0.113E-02    0.201E-03
DAV:   8    -0.190875899235E+02   -0.90427E-04   -0.25354E-05    32   0.172E-02    0.984E-04
DAV:   9    -0.190876153822E+02   -0.25459E-04   -0.42098E-06    40   0.641E-03    0.785E-04
DAV:  10    -0.190876339779E+02   -0.18596E-04   -0.17266E-06    32   0.454E-03    0.566E-04
DAV:  11    -0.190876421506E+02   -0.81727E-05   -0.40890E-07    32   0.271E-03
  66 F= -.19087642E+02 E0= -.19087642E+02  d E =0.178170E-01
quench:  g(F)=  0.000E+00 g(S)=  0.000E+00 dE (1.order)= 0.000E+00
 bond charge predicted
       N       E                     dE             d eps       ncg     rms          rms(c)
DAV:   1    -0.190572448186E+02    0.30389E-01   -0.45253E+00    40   0.119E+01    0.388E-01
DAV:   2    -0.190580254068E+02   -0.78059E-03   -0.39810E-02    40   0.100E+00    0.218E-01
DAV:   3    -0.190574197989E+02    0.60561E-03   -0.18829E-03    48   0.197E-01    0.809E-02
DAV:   4    -0.190573514220E+02    0.68377E-04   -0.12060E-03    32   0.133E-01    0.432E-02
DAV:   5    -0.190573112701E+02    0.40152E-04   -0.29686E-04    48   0.601E-02    0.162E-02
DAV:   6    -0.190574101832E+02   -0.98913E-04   -0.23364E-04    32   0.592E-02    0.215E-02
DAV:   7    -0.190574298351E+02   -0.19652E-04   -0.94657E-05    40   0.331E-02    0.375E-03
DAV:   8    -0.190574977794E+02   -0.67944E-04   -0.13151E-05    32   0.158E-02    0.212E-03
DAV:   9    -0.190575729434E+02   -0.75164E-04   -0.22560E-05    40   0.171E-02    0.307E-03
DAV:  10    -0.190576030874E+02   -0.30144E-04   -0.95008E-06    32   0.106E-02    0.805E-04
DAV:  11    -0.190576172459E+02   -0.14158E-04   -0.14679E-06    40   0.428E-03    0.783E-04
DAV:  12    -0.190576237204E+02   -0.64745E-05   -0.38865E-07    48   0.233E-03
  67 F= -.19057624E+02 E0= -.19057624E+02  d E =0.300184E-01
quench:  g(F)=  0.000E+00 g(S)=  0.000E+00 dE (1.order)= 0.000E+00
 bond charge predicted
       N       E                     dE             d eps       ncg     rms          rms(c)
DAV:   1    -0.190238305111E+02    0.33787E-01   -0.66954E+00    32   0.141E+01    0.488E-01
DAV:   2    -0.190232813968E+02    0.54911E-03   -0.66105E-02    40   0.123E+00    0.268E-01
DAV:   3    -0.190221920483E+02    0.10893E-02   -0.34497E-03    40   0.284E-01    0.980E-02
DAV:   4    -0.190219728916E+02    0.21916E-03   -0.57022E-04    40   0.126E-01    0.246E-02
DAV:   5    -0.190220326113E+02   -0.59720E-04   -0.66704E-05    32   0.420E-02    0.967E-03
DAV:   6    -0.190221240594E+02   -0.91448E-04   -0.22798E-05    32   0.221E-02    0.369E-03
[...]
  71 F= -.19059992E+02 E0= -.19059992E+02  d E =-.751009E-03
quench:  g(F)=  0.000E+00 g(S)=  0.000E+00 dE (1.order)= 0.000E+00
 bond charge predicted
       N       E                     dE             d eps       ncg     rms          rms(c)
DAV:   1    -0.190570529484E+02    0.29373E-02   -0.41667E-02    32   0.112E+00    0.373E-02
DAV:   2    -0.190570673881E+02   -0.14440E-04   -0.36100E-04    32   0.954E-02    0.204E-02
DAV:   3    -0.190570659796E+02    0.14084E-05   -0.15135E-05    40   0.190E-02
  72 F= -.19057066E+02 E0= -.19057066E+02  d E =0.292602E-02
quench:  g(F)=  0.000E+00 g(S)=  0.000E+00 dE (1.order)= 0.000E+00
 bond charge predicted
       N       E                     dE             d eps       ncg     rms          rms(c)
DAV:   1    -0.190526897552E+02    0.43776E-02   -0.97179E-02    32   0.171E+00    0.659E-02
DAV:   2    -0.190526919503E+02   -0.21951E-05   -0.82401E-04    32   0.141E-01    0.361E-02
DAV:   3    -0.190526718336E+02    0.20117E-04   -0.47911E-05    32   0.319E-02    0.125E-02
DAV:   4    -0.190526694525E+02    0.23811E-05   -0.85881E-06    32   0.148E-02
  73 F= -.19052669E+02 E0= -.19052669E+02  d E =0.439653E-02
quench:  g(F)=  0.000E+00 g(S)=  0.000E+00 dE (1.order)= 0.000E+00
 bond charge predicted
       N       E                     dE             d eps       ncg     rms          rms(c)
DAV:   1    -0.190522979653E+02    0.37387E-03   -0.47170E-03    32   0.376E-01    0.196E-02
DAV:   2    -0.190522979797E+02   -0.14369E-07   -0.52286E-05    40   0.350E-02
  74 F= -.19052298E+02 E0= -.19052298E+02  d E =0.371473E-03
quench:  g(F)=  0.000E+00 g(S)=  0.000E+00 dE (1.order)= 0.000E+00
 bond charge predicted
       N       E                     dE             d eps       ncg     rms          rms(c)
DAV:   1    -0.190533574174E+02   -0.10595E-02   -0.58078E-03    32   0.422E-01    0.153E-02
DAV:   2    -0.190533580454E+02   -0.62796E-06   -0.88519E-05    32   0.437E-02
  75 F= -.19053358E+02 E0= -.19053358E+02  d E =-.106007E-02
quench:  g(F)=  0.000E+00 g(S)=  0.000E+00 dE (1.order)= 0.000E+00
 bond charge predicted
       N       E                     dE             d eps       ncg     rms          rms(c)
DAV:   1    -0.190540681125E+02   -0.71070E-03   -0.38937E-03    48   0.345E-01    0.141E-02
DAV:   2    -0.190540658499E+02    0.22626E-05   -0.60420E-05    40   0.340E-02
  76 F= -.19054066E+02 E0= -.19054066E+02  d E =-.707804E-03
quench:  g(F)=  0.000E+00 g(S)=  0.000E+00 dE (1.order)= 0.000E+00
 bond charge predicted
       N       E                     dE             d eps       ncg     rms          rms(c)
DAV:   1    -0.190530556877E+02    0.10124E-02   -0.26483E-02    32   0.873E-01    0.479E-02
DAV:   2    -0.190530584274E+02   -0.27397E-05   -0.21170E-04    56   0.740E-02    0.272E-02
DAV:   3    -0.190530476554E+02    0.10772E-04   -0.44232E-05    32   0.257E-02    0.503E-03
DAV:   4    -0.190530489642E+02   -0.13088E-05   -0.49814E-06    48   0.917E-03
  77 F= -.19053049E+02 E0= -.19053049E+02  d E =0.101689E-02
quench:  g(F)=  0.000E+00 g(S)=  0.000E+00 dE (1.order)= 0.000E+00
 bond charge predicted
       N       E                     dE             d eps       ncg     rms          rms(c)
DAV:   1    -0.190470539633E+02    0.59937E-02   -0.10987E+00    32   0.558E+00    0.319E-01
DAV:   2    -0.190470051029E+02    0.48860E-04   -0.96209E-03    40   0.503E-01    0.178E-01
DAV:   3    -0.190467080839E+02    0.29702E-03   -0.19628E-03    48   0.163E-01    0.348E-02
DAV:   4    -0.190467318888E+02   -0.23805E-04   -0.18881E-04    32   0.610E-02    0.181E-02
DAV:   5    -0.190467572382E+02   -0.25349E-04   -0.27128E-05    32   0.263E-02    0.507E-03
DAV:   6    -0.190467769961E+02   -0.19758E-04   -0.36232E-06    40   0.940E-03    0.185E-03
DAV:   7    -0.190468054129E+02   -0.28417E-04   -0.38457E-06    32   0.684E-03    0.910E-04
DAV:   8    -0.190468298980E+02   -0.24485E-04   -0.39156E-06    40   0.620E-03    0.617E-04
DAV:   9    -0.190468501791E+02   -0.20281E-04   -0.50248E-06    32   0.687E-03    0.493E-04
DAV:  10    -0.190468555387E+02   -0.53596E-05   -0.43057E-07    56   0.198E-03
  78 F= -.19046856E+02 E0= -.19046856E+02  d E =0.619343E-02
quench:  g(F)=  0.000E+00 g(S)=  0.000E+00 dE (1.order)= 0.000E+00
 bond charge predicted
       N       E                     dE             d eps       ncg     rms          rms(c)
DAV:   1    -0.190424930484E+02    0.43571E-02   -0.17636E-01    32   0.230E+00    0.740E-02
DAV:   2    -0.190424616375E+02    0.31411E-04   -0.20981E-03    32   0.216E-01    0.420E-02
DAV:   3    -0.190424140017E+02    0.47636E-04   -0.11413E-04    48   0.553E-02    0.195E-02
DAV:   4    -0.190424002509E+02    0.13751E-04   -0.44717E-05    32   0.336E-02    0.586E-03
DAV:   5    -0.190424051802E+02   -0.49293E-05   -0.57898E-06    32   0.121E-02
  79 F= -.19042405E+02 E0= -.19042405E+02  d E =0.445036E-02
quench:  g(F)=  0.000E+00 g(S)=  0.000E+00 dE (1.order)= 0.000E+00
 bond charge predicted
       N       E                     dE             d eps       ncg     rms          rms(c)
DAV:   1    -0.190436015959E+02   -0.12013E-02   -0.30836E-01    32   0.297E+00    0.166E-01
DAV:   2    -0.190435759305E+02    0.25665E-04   -0.32068E-03    40   0.290E-01    0.942E-02
DAV:   3    -0.190434280623E+02    0.14787E-03   -0.49143E-04    48   0.942E-02    0.228E-02
DAV:   4    -0.190434283257E+02   -0.26334E-06   -0.47872E-05    32   0.345E-02
  80 F= -.19043428E+02 E0= -.19043428E+02  d E =-.102315E-02
quench:  g(F)=  0.000E+00 g(S)=  0.000E+00 dE (1.order)= 0.000E+00
 bond charge predicted
       N       E                     dE             d eps       ncg     rms          rms(c)
DAV:   1    -0.190451546983E+02   -0.17266E-02   -0.31866E-01    32   0.309E+00    0.165E-01
DAV:   2    -0.190451980180E+02   -0.43320E-04   -0.31253E-03    40   0.276E-01    0.992E-02
DAV:   3    -0.190450702375E+02    0.12778E-03   -0.70449E-04    32   0.111E-01    0.219E-02
DAV:   4    -0.190450803351E+02   -0.10098E-04   -0.10068E-04    32   0.411E-02    0.110E-02
DAV:   5    -0.190450949105E+02   -0.14575E-04   -0.13216E-05    48   0.177E-02    0.503E-03
DAV:   6    -0.190451109072E+02   -0.15997E-04   -0.40073E-06    40   0.796E-03    0.120E-03
DAV:   7    -0.190451216162E+02   -0.10709E-04   -0.90123E-07    48   0.344E-03    0.697E-04
DAV:   8    -0.190451334897E+02   -0.11873E-04   -0.90102E-07    40   0.298E-03    0.375E-04
DAV:   9    -0.190451444448E+02   -0.10955E-04   -0.13416E-06    32   0.348E-03    0.299E-04
DAV:  10    -0.190451486715E+02   -0.42266E-05   -0.47908E-07    32   0.211E-03
  81 F= -.19045149E+02 E0= -.19045149E+02  d E =-.172035E-02
quench:  g(F)=  0.000E+00 g(S)=  0.000E+00 dE (1.order)= 0.000E+00
 bond charge predicted
       N       E                     dE             d eps       ncg     rms          rms(c)
DAV:   1    -0.190450439788E+02    0.10047E-03   -0.78153E-02    32   0.151E+00    0.870E-02
DAV:   2    -0.190450452551E+02   -0.12764E-05   -0.10103E-03    48   0.152E-01    0.530E-02
DAV:   3    -0.190450052677E+02    0.39987E-04   -0.22909E-04    48   0.655E-02    0.174E-02
DAV:   4    -0.190450028665E+02    0.24012E-05   -0.25701E-05    32   0.227E-02
  82 F= -.19045003E+02 E0= -.19045003E+02  d E =0.145805E-03
quench:  g(F)=  0.000E+00 g(S)=  0.000E+00 dE (1.order)= 0.000E+00
 bond charge predicted
       N       E                     dE             d eps       ncg     rms          rms(c)
DAV:   1    -0.190423610089E+02    0.26443E-02   -0.16964E-01    32   0.224E+00    0.115E-01
DAV:   2    -0.190424001598E+02   -0.39151E-04   -0.15852E-03    40   0.197E-01    0.676E-02
DAV:   3    -0.190423287121E+02    0.71448E-04   -0.22089E-04    40   0.590E-02    0.117E-02
DAV:   4    -0.190423320302E+02   -0.33181E-05   -0.13543E-05    32   0.172E-02
  83 F= -.19042332E+02 E0= -.19042332E+02  d E =0.267084E-02
quench:  g(F)=  0.000E+00 g(S)=  0.000E+00 dE (1.order)= 0.000E+00
 bond charge predicted
       N       E                     dE             d eps       ncg     rms          rms(c)
DAV:   1    -0.190446353408E+02   -0.23066E-02   -0.77864E-02    32   0.150E+00    0.807E-02
DAV:   2    -0.190446570034E+02   -0.21663E-04   -0.60377E-04    40   0.126E-01    0.454E-02
DAV:   3    -0.190446268950E+02    0.30108E-04   -0.12396E-04    48   0.424E-02    0.785E-03
DAV:   4    -0.190446265852E+02    0.30979E-06   -0.12005E-05    48   0.142E-02
  84 F= -.19044627E+02 E0= -.19044627E+02  d E =-.229455E-02
quench:  g(F)=  0.000E+00 g(S)=  0.000E+00 dE (1.order)= 0.000E+00
 bond charge predicted
       N       E                     dE             d eps       ncg     rms          rms(c)
DAV:   1    -0.190346238076E+02    0.10003E-01   -0.19318E-01    48   0.243E+00    0.173E-01
DAV:   2    -0.190343205593E+02    0.30325E-03   -0.24600E-03    48   0.231E-01    0.954E-02
DAV:   3    -0.190341975624E+02    0.12300E-03   -0.10050E-03    40   0.144E-01    0.265E-02
DAV:   4    -0.190341919541E+02    0.56083E-05   -0.96144E-05    32   0.460E-02
  85 F= -.19034192E+02 E0= -.19034192E+02  d E =0.104346E-01
quench:  g(F)=  0.000E+00 g(S)=  0.000E+00 dE (1.order)= 0.000E+00
 bond charge predicted
       N       E                     dE             d eps       ncg     rms          rms(c)
DAV:   1    -0.190416053350E+02   -0.74078E-02   -0.14062E-01    32   0.205E+00    0.150E-01
DAV:   2    -0.190413273406E+02    0.27799E-03   -0.20671E-03    48   0.226E-01    0.849E-02
DAV:   3    -0.190412222842E+02    0.10506E-03   -0.96470E-04    40   0.141E-01    0.278E-02
DAV:   4    -0.190412093018E+02    0.12982E-04   -0.13154E-04    48   0.486E-02    0.136E-02
DAV:   5    -0.190412107226E+02   -0.14207E-05   -0.90241E-06    40   0.167E-02
  86 F= -.19041211E+02 E0= -.19041211E+02  d E =-.701877E-02
quench:  g(F)=  0.000E+00 g(S)=  0.000E+00 dE (1.order)= 0.000E+00
 bond charge predicted
       N       E                     dE             d eps       ncg     rms          rms(c)
DAV:   1    -0.190414845159E+02   -0.27521E-03   -0.39485E-03    48   0.339E-01    0.228E-02
DAV:   2    -0.190414776364E+02    0.68795E-05   -0.11964E-04    40   0.482E-02    0.110E-02
DAV:   3    -0.190414766056E+02    0.10308E-05   -0.51510E-06    48   0.117E-02
  87 F= -.19041477E+02 E0= -.19041477E+02  d E =-.265883E-03
quench:  g(F)=  0.000E+00 g(S)=  0.000E+00 dE (1.order)= 0.000E+00
 bond charge predicted
       N       E                     dE             d eps       ncg     rms          rms(c)
DAV:   1    -0.190404389300E+02    0.10387E-02   -0.57697E-03    48   0.419E-01    0.211E-02
DAV:   2    -0.190404344540E+02    0.44760E-05   -0.91683E-05    32   0.423E-02
  88 F= -.19040434E+02 E0= -.19040434E+02  d E =0.104215E-02
quench:  g(F)=  0.000E+00 g(S)=  0.000E+00 dE (1.order)= 0.000E+00
 bond charge predicted
       N       E                     dE             d eps       ncg     rms          rms(c)
DAV:   1    -0.190399006796E+02    0.53825E-03   -0.20861E-03    48   0.248E-01    0.164E-02
DAV:   2    -0.190398992483E+02    0.14313E-05   -0.17990E-05    56   0.207E-02
  89 F= -.19039899E+02 E0= -.19039899E+02  d E =0.535206E-03
quench:  g(F)=  0.000E+00 g(S)=  0.000E+00 dE (1.order)= 0.000E+00
 bond charge predicted
       N       E                     dE             d eps       ncg     rms          rms(c)
DAV:   1    -0.190388607263E+02    0.10400E-02   -0.10348E-02    32   0.551E-01    0.286E-02
DAV:   2    -0.190388618572E+02   -0.11309E-05   -0.72103E-05    40   0.449E-02
  90 F= -.19038862E+02 E0= -.19038862E+02  d E =0.103739E-02
quench:  g(F)=  0.000E+00 g(S)=  0.000E+00 dE (1.order)= 0.000E+00
 bond charge predicted
       N       E                     dE             d eps       ncg     rms          rms(c)
DAV:   1    -0.190349903936E+02    0.38703E-02   -0.14309E-01    32   0.205E+00    0.972E-02
DAV:   2    -0.190350119703E+02   -0.21577E-04   -0.10268E-03    40   0.167E-01    0.558E-02
DAV:   3    -0.190349596717E+02    0.52299E-04   -0.16719E-04    32   0.525E-02    0.995E-03
DAV:   4    -0.190349616946E+02   -0.20229E-05   -0.12800E-05    48   0.156E-02
  91 F= -.19034962E+02 E0= -.19034962E+02  d E =0.390016E-02
quench:  g(F)=  0.000E+00 g(S)=  0.000E+00 dE (1.order)= 0.000E+00
 bond charge predicted
       N       E                     dE             d eps       ncg     rms          rms(c)
DAV:   1    -0.190349147355E+02    0.44936E-04   -0.62117E-03    32   0.441E-01    0.235E-02
DAV:   2    -0.190349118937E+02    0.28418E-05   -0.84704E-05    40   0.483E-02
  92 F= -.19034912E+02 E0= -.19034912E+02  d E =0.498009E-04
quench:  g(F)=  0.000E+00 g(S)=  0.000E+00 dE (1.order)= 0.000E+00
 bond charge predicted
       N       E                     dE             d eps       ncg     rms          rms(c)
DAV:   1    -0.190343859851E+02    0.52875E-03   -0.39454E-03    32   0.343E-01    0.118E-02
DAV:   2    -0.190343862966E+02   -0.31159E-06   -0.48728E-05    40   0.352E-02
  93 F= -.19034386E+02 E0= -.19034386E+02  d E =0.525597E-03
quench:  g(F)=  0.000E+00 g(S)=  0.000E+00 dE (1.order)= 0.000E+00
 bond charge predicted
       N       E                     dE             d eps       ncg     rms          rms(c)
DAV:   1    -0.190338115081E+02    0.57448E-03   -0.41981E-03    32   0.356E-01    0.157E-02
DAV:   2    -0.190338075973E+02    0.39108E-05   -0.56006E-05    56   0.356E-02
  94 F= -.19033808E+02 E0= -.19033808E+02  d E =0.578699E-03
quench:  g(F)=  0.000E+00 g(S)=  0.000E+00 dE (1.order)= 0.000E+00
 bond charge predicted
       N       E                     dE             d eps       ncg     rms          rms(c)
DAV:   1    -0.190345524369E+02   -0.74093E-03   -0.33870E-03    32   0.315E-01    0.120E-02
DAV:   2    -0.190345544792E+02   -0.20423E-05   -0.26948E-05    40   0.270E-02
  95 F= -.19034554E+02 E0= -.19034554E+02  d E =-.746882E-03
quench:  g(F)=  0.000E+00 g(S)=  0.000E+00 dE (1.order)= 0.000E+00
 bond charge predicted
       N       E                     dE             d eps       ncg     rms          rms(c)
DAV:   1    -0.190589170925E+02   -0.24365E-01   -0.49607E+00    32   0.120E+01    0.548E-01
DAV:   2    -0.190591385084E+02   -0.22142E-03   -0.41311E-02    40   0.101E+00    0.318E-01
DAV:   3    -0.190581080770E+02    0.10304E-02   -0.52767E-03    48   0.276E-01    0.866E-02
DAV:   4    -0.190580391032E+02    0.68974E-04   -0.56099E-04    40   0.995E-02    0.340E-02
DAV:   5    -0.190580765817E+02   -0.37478E-04   -0.15594E-04    32   0.501E-02    0.141E-02
DAV:   6    -0.190581175464E+02   -0.40965E-04   -0.28326E-05    40   0.265E-02    0.348E-03
DAV:   7    -0.190581526337E+02   -0.35087E-04   -0.62226E-06    32   0.881E-03    0.205E-03
DAV:   8    -0.190581958622E+02   -0.43228E-04   -0.63369E-06    32   0.801E-03    0.119E-03
DAV:   9    -0.190582342404E+02   -0.38378E-04   -0.59396E-06    32   0.698E-03    0.784E-04
DAV:  10    -0.190582580241E+02   -0.23784E-04   -0.42592E-06    40   0.570E-03    0.410E-04
DAV:  11    -0.190582682865E+02   -0.10262E-04   -0.72184E-07    32   0.283E-03    0.295E-04
DAV:  12    -0.190582743469E+02   -0.60604E-05   -0.26006E-07    32   0.200E-03
  96 F= -.19058274E+02 E0= -.19058274E+02  d E =-.237199E-01
quench:  g(F)=  0.000E+00 g(S)=  0.000E+00 dE (1.order)= 0.000E+00
 bond charge predicted
       N       E                     dE             d eps       ncg     rms          rms(c)
DAV:   1    -0.190430297425E+02    0.15239E-01   -0.30341E+00    32   0.939E+00    0.442E-01
DAV:   2    -0.190427785873E+02    0.25116E-03   -0.23456E-02    40   0.769E-01    0.254E-01
DAV:   3    -0.190421840781E+02    0.59451E-03   -0.36947E-03    48   0.230E-01    0.532E-02
DAV:   4    -0.190421623912E+02    0.21687E-04   -0.31849E-04    48   0.761E-02    0.251E-02
DAV:   5    -0.190421760690E+02   -0.13678E-04   -0.58602E-05    32   0.315E-02    0.993E-03
DAV:   6    -0.190421949489E+02   -0.18880E-04   -0.92613E-06    32   0.182E-02    0.223E-03
DAV:   7    -0.190422218331E+02   -0.26884E-04   -0.37589E-06    32   0.656E-03    0.124E-03
DAV:   8    -0.190422487553E+02   -0.26922E-04   -0.38103E-06    32   0.574E-03    0.790E-04
DAV:   9    -0.190422755406E+02   -0.26785E-04   -0.74432E-06    32   0.717E-03    0.431E-04
DAV:  10    -0.190422836926E+02   -0.81521E-05   -0.68045E-07    56   0.212E-03
  97 F= -.19042284E+02 E0= -.19042284E+02  d E =0.159907E-01
quench:  g(F)=  0.000E+00 g(S)=  0.000E+00 dE (1.order)= 0.000E+00
 bond charge predicted
       N       E                     dE             d eps       ncg     rms          rms(c)
DAV:   1    -0.189828102469E+02    0.59465E-01   -0.13744E+01    32   0.204E+01    0.817E-01
DAV:   2    -0.189835791311E+02   -0.76888E-03   -0.11953E-01    40   0.170E+00    0.462E-01
DAV:   3    -0.189814731331E+02    0.21060E-02   -0.94957E-03    40   0.371E-01    0.114E-01
DAV:   4    -0.189814396773E+02    0.33456E-04   -0.13110E-03    48   0.151E-01    0.466E-02
DAV:   5    -0.189814256018E+02    0.14076E-04   -0.19828E-04    32   0.566E-02    0.235E-02
DAV:   6    -0.189815493622E+02   -0.12376E-03   -0.70748E-05    32   0.402E-02    0.644E-03
DAV:   7    -0.189816594899E+02   -0.11013E-03   -0.20891E-05    32   0.176E-02    0.359E-03
DAV:   8    -0.189817830324E+02   -0.12354E-03   -0.22085E-05    32   0.162E-02    0.189E-03
DAV:   9    -0.189818913751E+02   -0.10834E-03   -0.26035E-05    32   0.161E-02    0.122E-03
DAV:  10    -0.189819447508E+02   -0.53376E-04   -0.10305E-05    40   0.928E-03    0.666E-04
DAV:  11    -0.189819686042E+02   -0.23853E-04   -0.13780E-06    32   0.406E-03    0.418E-04
DAV:  12    -0.189819778002E+02   -0.91960E-05   -0.50020E-07    32   0.301E-03
  98 F= -.18981978E+02 E0= -.18981978E+02  d E =0.603059E-01
quench:  g(F)=  0.000E+00 g(S)=  0.000E+00 dE (1.order)= 0.000E+00
 bond charge predicted
       N       E                     dE             d eps       ncg     rms          rms(c)
DAV:   1    -0.190418893841E+02   -0.59921E-01   -0.14118E+01    32   0.206E+01    0.855E-01
DAV:   2    -0.190436732523E+02   -0.17839E-02   -0.14472E-01    32   0.185E+00    0.470E-01
DAV:   3    -0.190413877229E+02    0.22855E-02   -0.87139E-03    48   0.390E-01    0.186E-01
DAV:   4    -0.190408129282E+02    0.57479E-03   -0.21486E-03    40   0.193E-01    0.473E-02
DAV:   5    -0.190409035185E+02   -0.90590E-04   -0.21535E-04    48   0.625E-02    0.227E-02
DAV:   6    -0.190410588441E+02   -0.15533E-03   -0.54916E-05    32   0.378E-02    0.549E-03
DAV:   7    -0.190412068732E+02   -0.14803E-03   -0.15404E-05    32   0.144E-02    0.354E-03
DAV:   8    -0.190414775329E+02   -0.27066E-03   -0.55139E-05    32   0.242E-02    0.275E-03
DAV:   9    -0.190415953134E+02   -0.11778E-03   -0.14161E-05    48   0.114E-02    0.130E-03
DAV:  10    -0.190416808322E+02   -0.85519E-04   -0.11313E-05    32   0.106E-02    0.824E-04
DAV:  11    -0.190417079175E+02   -0.27085E-04   -0.12216E-06    32   0.515E-03    0.500E-04
DAV:  12    -0.190417308799E+02   -0.22962E-04   -0.11345E-06    32   0.460E-03    0.297E-04
DAV:  13    -0.190417357066E+02   -0.48267E-05   -0.18196E-07    48   0.158E-03
  99 F= -.19041736E+02 E0= -.19041736E+02  d E =-.597579E-01
quench:  g(F)=  0.000E+00 g(S)=  0.000E+00 dE (1.order)= 0.000E+00
 bond charge predicted
       N       E                     dE             d eps       ncg     rms          rms(c)
DAV:   1    -0.190301525926E+02    0.11578E-01   -0.92419E-01    32   0.520E+00    0.257E-01
DAV:   2    -0.190299781344E+02    0.17446E-03   -0.71938E-03    48   0.423E-01    0.140E-01
DAV:   3    -0.190297774046E+02    0.20073E-03   -0.89529E-04    40   0.109E-01    0.335E-02
DAV:   4    -0.190297653013E+02    0.12103E-04   -0.64348E-05    48   0.405E-02    0.137E-02
DAV:   5    -0.190297763791E+02   -0.11078E-04   -0.18527E-05    32   0.195E-02    0.346E-03
DAV:   6    -0.190297851522E+02   -0.87731E-05   -0.23785E-06    32   0.769E-03
 100 F= -.19029785E+02 E0= -.19029785E+02  d E =0.119506E-01
quench:  g(F)=  0.000E+00 g(S)=  0.000E+00 dE (1.order)= 0.000E+00
 writing wavefunctions
