 running on   40 total cores
 distrk:  each k-point on   40 cores,    1 groups
 distr:  one band on    1 cores,   40 groups
 using from now: INCAR     
 vasp.5.4.1 05Feb16 (build Sep 02 2018 21:45:25) complex                        
  
 POSCAR found type information on POSCAR  Cu H 
 POSCAR found :  2 types and      65 ions
 scaLAPACK will be used

 ----------------------------------------------------------------------------- 
|                                                                             |
|           W    W    AA    RRRRR   N    N  II  N    N   GGGG   !!!           |
|           W    W   A  A   R    R  NN   N  II  NN   N  G    G  !!!           |
|           W    W  A    A  R    R  N N  N  II  N N  N  G       !!!           |
|           W WW W  AAAAAA  RRRRR   N  N N  II  N  N N  G  GGG   !            |
|           WW  WW  A    A  R   R   N   NN  II  N   NN  G    G                |
|           W    W  A    A  R    R  N    N  II  N    N   GGGG   !!!           |
|                                                                             |
|      For optimal performance we recommend to set                            |
|        NCORE= 4 - approx SQRT( number of cores)                             |
|      NCORE specifies how many cores store one orbital (NPAR=cpu/NCORE).     |
|      This setting can  greatly improve the performance of VASP for DFT.     |
|      The default, NPAR=number of cores might be grossly inefficient         |
|      on modern multi-core architectures or massively parallel machines.     |
|      Do your own testing !!!!                                               |
|      Unfortunately you need to use the default for GW and RPA calculations. |
|      (for HF NCORE is supported but not extensively tested yet)             |
|                                                                             |
 ----------------------------------------------------------------------------- 

 LDA part: xc-table for Ceperly-Alder, standard interpolation
 POSCAR, INCAR and KPOINTS ok, starting setup
 WARNING: small aliasing (wrap around) errors must be expected
 FFT: planning ...
 WAVECAR not read
 entering main loop
       N       E                     dE             d eps       ncg     rms          rms(c)
DAV:   1     0.535907026586E+04    0.53591E+04   -0.31371E+05 22000   0.190E+03
DAV:   2     0.269799776425E+03   -0.50893E+04   -0.48575E+04 22000   0.410E+02
DAV:   3    -0.260302142132E+03   -0.53010E+03   -0.50347E+03 23440   0.164E+02
DAV:   4    -0.275392663513E+03   -0.15091E+02   -0.15015E+02 24040   0.316E+01
DAV:   5    -0.275484328554E+03   -0.91665E-01   -0.91658E-01 24360   0.215E+00    0.532E+01
DAV:   6    -0.249985641410E+03    0.25499E+02   -0.54678E+02 25000   0.907E+01    0.270E+01
DAV:   7    -0.226635391302E+03    0.23350E+02   -0.10392E+02 24840   0.457E+01    0.446E+00
DAV:   8    -0.227718203362E+03   -0.10828E+01   -0.19364E+01 26080   0.389E+01    0.650E+00
DAV:   9    -0.226621260647E+03    0.10969E+01   -0.76871E+00 28560   0.248E+01    0.385E+00
DAV:  10    -0.226495381331E+03    0.12588E+00   -0.16106E+00 24800   0.844E+00    0.304E+00
DAV:  11    -0.226369703350E+03    0.12568E+00   -0.78188E-01 23840   0.480E+00    0.121E+00
DAV:  12    -0.226346150217E+03    0.23553E-01   -0.14600E-01 24000   0.214E+00    0.547E-01
DAV:  13    -0.226338566471E+03    0.75837E-02   -0.61983E-02 22840   0.170E+00    0.377E-01
DAV:  14    -0.226332306402E+03    0.62601E-02   -0.19520E-02 23600   0.121E+00    0.196E-01
DAV:  15    -0.226324734249E+03    0.75722E-02   -0.95816E-03 23320   0.692E-01    0.125E-01
DAV:  16    -0.226324266402E+03    0.46785E-03   -0.23287E-03 23440   0.420E-01    0.111E-01
DAV:  17    -0.226326064858E+03   -0.17985E-02   -0.22075E-03 22480   0.329E-01    0.401E-02
DAV:  18    -0.226330613087E+03   -0.45482E-02   -0.25160E-03 24760   0.388E-01    0.856E-02
DAV:  19    -0.226333536813E+03   -0.29237E-02   -0.11591E-03 23800   0.198E-01    0.683E-02
DAV:  20    -0.226335108904E+03   -0.15721E-02   -0.16038E-03 37040   0.320E-01    0.199E-02
DAV:  21    -0.226336711627E+03   -0.16027E-02   -0.11098E-03 25440   0.263E-01    0.653E-02
DAV:  22    -0.226336769653E+03   -0.58026E-04   -0.68611E-04 24120   0.160E-01    0.509E-02
DAV:  23    -0.226336743992E+03    0.25661E-04   -0.86559E-05 23760   0.571E-02    0.345E-02
DAV:  24    -0.226336722572E+03    0.21420E-04   -0.95555E-05 16880   0.728E-02    0.185E-02
DAV:  25    -0.226336766982E+03   -0.44410E-04   -0.12750E-04 22960   0.370E-02    0.191E-02
DAV:  26    -0.226336764207E+03    0.27744E-05   -0.17507E-05 15000   0.229E-02
   1 F= -.22633676E+03 E0= -.22633663E+03  d E =-.226337E+03
 curvature:   0.00 expect dE= 0.000E+00 dE for cont linesearch  0.000E+00
 trial: gam= 0.00000 g(F)=  0.451E-01 g(S)=  0.000E+00 ort = 0.000E+00 (trialstep = 0.100E+01)
 search vector abs. value=  0.451E-01
 bond charge predicted
       N       E                     dE             d eps       ncg     rms          rms(c)
DAV:   1    -0.226381285427E+03   -0.44518E-01   -0.87077E-01 22480   0.147E+00    0.661E-02
DAV:   2    -0.226381505629E+03   -0.22020E-03   -0.31212E-03 24000   0.223E-01    0.499E-02
DAV:   3    -0.226381589509E+03   -0.83880E-04   -0.13740E-03 24440   0.368E-01    0.546E-02
DAV:   4    -0.226381486372E+03    0.10314E-03   -0.71053E-04 26000   0.272E-01    0.239E-02
DAV:   5    -0.226381470599E+03    0.15773E-04   -0.10372E-04 24080   0.110E-01    0.994E-03
DAV:   6    -0.226381472324E+03   -0.17249E-05   -0.50598E-05 22840   0.465E-02
   2 F= -.22638147E+03 E0= -.22638134E+03  d E =-.447081E-01
 ZBRENT: can't locate minimum, use default step
 trial-energy change:   -0.044708  1 .order   -0.044814   -0.045060   -0.044568
 step:   4.0000(harm= 91.5752)  dis= 0.02450  next Energy=  -228.399933 (dE=-0.206E+01)
 bond charge predicted
       N       E                     dE             d eps       ncg     rms          rms(c)
DAV:   1    -0.226511742680E+03   -0.13027E+00   -0.78582E+00 22000   0.442E+00    0.193E-01
DAV:   2    -0.226513987510E+03   -0.22448E-02   -0.30279E-02 23520   0.539E-01    0.129E-01
DAV:   3    -0.226514546534E+03   -0.55902E-03   -0.77171E-03 25040   0.938E-01    0.154E-01
DAV:   4    -0.226513662636E+03    0.88390E-03   -0.63509E-03 24640   0.825E-01    0.592E-02
DAV:   5    -0.226513552180E+03    0.11046E-03   -0.76807E-04 37320   0.283E-01    0.241E-02
DAV:   6    -0.226513557102E+03   -0.49228E-05   -0.24629E-04 23440   0.118E-01    0.137E-02
DAV:   7    -0.226513565589E+03   -0.84864E-05   -0.66641E-05 22520   0.377E-02
   3 F= -.22651357E+03 E0= -.22651343E+03  d E =-.176801E+00
 curvature:  -2.98 expect dE=-0.126E+00 dE for cont linesearch -0.125E+00
 ZBRENT: increasing intervall
 opt :  10.0000  next Energy=  -226.766825 (dE=-0.430E+00)
 bond charge predicted
       N       E                     dE             d eps       ncg     rms          rms(c)
DAV:   1    -0.226754006847E+03   -0.24045E+00   -0.31687E+01 22000   0.889E+00    0.387E-01
DAV:   2    -0.226764199909E+03   -0.10193E-01   -0.13185E-01 24000   0.111E+00    0.277E-01
DAV:   3    -0.226765469527E+03   -0.12696E-02   -0.26127E-02 24960   0.175E+00    0.301E-01
DAV:   4    -0.226763550189E+03    0.19193E-02   -0.25123E-02 29760   0.161E+00    0.172E-01
DAV:   5    -0.226762358352E+03    0.11918E-02   -0.59687E-03 34720   0.796E-01    0.478E-02
DAV:   6    -0.226762390090E+03   -0.31739E-04   -0.10654E-03 23200   0.207E-01    0.281E-02
DAV:   7    -0.226762421983E+03   -0.31893E-04   -0.34149E-04 23600   0.127E-01    0.240E-02
DAV:   8    -0.226762440238E+03   -0.18255E-04   -0.76798E-05 22120   0.702E-02    0.117E-02
DAV:   9    -0.226762471966E+03   -0.31728E-04   -0.22169E-05 18320   0.335E-02    0.591E-03
DAV:  10    -0.226762516524E+03   -0.44558E-04   -0.20061E-05 19840   0.204E-02    0.664E-03
DAV:  11    -0.226762529092E+03   -0.12568E-04   -0.47187E-06 15760   0.164E-02    0.539E-03
DAV:  12    -0.226762560248E+03   -0.31156E-04   -0.85191E-06 15360   0.171E-02    0.180E-03
DAV:  13    -0.226762572472E+03   -0.12224E-04   -0.57489E-06 15640   0.828E-03    0.253E-03
DAV:  14    -0.226762574004E+03   -0.15316E-05   -0.13625E-06 14520   0.945E-03
   4 F= -.22676257E+03 E0= -.22676244E+03  d E =-.425810E+00
 curvature:  -6.06 expect dE=-0.220E+00 dE for cont linesearch -0.206E+00
 ZBRENT: increasing intervall
 opt :  22.0000  next Energy=  -227.181559 (dE=-0.845E+00)
 bond charge predicted
       N       E                     dE             d eps       ncg     rms          rms(c)
DAV:   1    -0.227100589120E+03   -0.33802E+00   -0.13051E+02 22000   0.182E+01    0.820E-01
DAV:   2    -0.227154227035E+03   -0.53638E-01   -0.64650E-01 24000   0.271E+00    0.669E-01
DAV:   3    -0.227156011493E+03   -0.17845E-02   -0.12180E-01 24880   0.360E+00    0.569E-01
DAV:   4    -0.227154670102E+03    0.13414E-02   -0.10662E-01 33760   0.328E+00    0.445E-01
DAV:   5    -0.227146361018E+03    0.83091E-02   -0.38471E-02 35120   0.201E+00    0.111E-01
DAV:   6    -0.227146492430E+03   -0.13141E-03   -0.50604E-03 23480   0.390E-01    0.535E-02
DAV:   7    -0.227146552972E+03   -0.60542E-04   -0.13127E-03 23560   0.232E-01    0.360E-02
DAV:   8    -0.227146556451E+03   -0.34791E-05   -0.23683E-04 23080   0.103E-01    0.202E-02
DAV:   9    -0.227146605737E+03   -0.49286E-04   -0.99256E-05 22480   0.540E-02    0.105E-02
DAV:  10    -0.227146658233E+03   -0.52496E-04   -0.34998E-05 23200   0.504E-02    0.120E-02
DAV:  11    -0.227146687651E+03   -0.29418E-04   -0.10277E-05 14840   0.284E-02    0.821E-03
DAV:  12    -0.227146767312E+03   -0.79661E-04   -0.23859E-05 20520   0.198E-02    0.489E-03
DAV:  13    -0.227146786642E+03   -0.19331E-04   -0.67387E-06 16040   0.178E-02    0.299E-03
DAV:  14    -0.227146801381E+03   -0.14739E-04   -0.59431E-06 14920   0.896E-03    0.238E-03
DAV:  15    -0.227146808042E+03   -0.66612E-05   -0.55129E-06 15600   0.171E-02
   5 F= -.22714681E+03 E0= -.22714667E+03  d E =-.810044E+00
 curvature: -12.32 expect dE=-0.274E+00 dE for cont linesearch -0.135E+00
 ZBRENT: increasing intervall
 opt :  46.0000  next Energy=  -227.275487 (dE=-0.939E+00)
 bond charge predicted
       N       E                     dE             d eps       ncg     rms          rms(c)
DAV:   1    -0.226428232764E+03    0.71857E+00   -0.58225E+02 22000   0.399E+01    0.202E+00
DAV:   2    -0.226728018922E+03   -0.29979E+00   -0.37214E+00 24360   0.605E+00    0.160E+00
DAV:   3    -0.226734591141E+03   -0.65722E-02   -0.63360E-01 25000   0.809E+00    0.136E+00
DAV:   4    -0.226743667815E+03   -0.90767E-02   -0.62107E-01 32480   0.785E+00    0.109E+00
DAV:   5    -0.226691523805E+03    0.52144E-01   -0.27009E-01 32200   0.524E+00    0.211E-01
DAV:   6    -0.226692606317E+03   -0.10825E-02   -0.28043E-02 23120   0.908E-01    0.133E-01
DAV:   7    -0.226692847005E+03   -0.24069E-03   -0.66416E-03 23960   0.498E-01    0.842E-02
DAV:   8    -0.226692806013E+03    0.40992E-04   -0.14494E-03 24000   0.225E-01    0.400E-02
DAV:   9    -0.226692875597E+03   -0.69584E-04   -0.33124E-04 23440   0.127E-01    0.204E-02
DAV:  10    -0.226692930062E+03   -0.54465E-04   -0.10337E-04 23680   0.101E-01    0.165E-02
DAV:  11    -0.226692976638E+03   -0.46576E-04   -0.29151E-05 19760   0.493E-02    0.992E-03
DAV:  12    -0.226693074386E+03   -0.97748E-04   -0.32259E-05 20440   0.283E-02    0.435E-03
DAV:  13    -0.226693106764E+03   -0.32378E-04   -0.10294E-05 15680   0.201E-02    0.582E-03
DAV:  14    -0.226693129955E+03   -0.23191E-04   -0.72765E-06 14840   0.194E-02    0.246E-03
DAV:  15    -0.226693146937E+03   -0.16982E-04   -0.76964E-06 15800   0.740E-03    0.113E-03
DAV:  16    -0.226693149961E+03   -0.30242E-05   -0.24627E-06 15440   0.588E-03
   6 F= -.22669315E+03 E0= -.22669260E+03  d E =-.356386E+00
 curvature: -11.70 expect dE=-0.333E+01 dE for cont linesearch -0.156E+01
 ZBRENT: bracketing found
 ZBRENT: interpolating
 opt :  27.3589  next Energy=  -227.206444 (dE=-0.870E+00)
 bond charge predicted
       N       E                     dE             d eps       ncg     rms          rms(c)
DAV:   1    -0.227064377314E+03   -0.37123E+00   -0.33497E+02 22120   0.285E+01    0.174E+00
DAV:   2    -0.227281715658E+03   -0.21734E+00   -0.26906E+00 26000   0.879E+00    0.182E+00
DAV:   3    -0.227240418411E+03    0.41297E-01   -0.30177E-01 24880   0.595E+00    0.857E-01
DAV:   4    -0.227278212498E+03   -0.37794E-01   -0.34502E-01 35320   0.573E+00    0.959E-01
DAV:   5    -0.227232838538E+03    0.45374E-01   -0.30093E-01 25640   0.547E+00    0.359E-01
DAV:   6    -0.227231639214E+03    0.11993E-02   -0.23079E-02 24680   0.104E+00    0.144E-01
DAV:   7    -0.227231670051E+03   -0.30838E-04   -0.55512E-03 23800   0.491E-01    0.737E-02
DAV:   8    -0.227231734057E+03   -0.64006E-04   -0.18820E-03 23560   0.270E-01    0.379E-02
DAV:   9    -0.227231782703E+03   -0.48646E-04   -0.42061E-04 22120   0.121E-01    0.221E-02
DAV:  10    -0.227231803960E+03   -0.21257E-04   -0.91364E-05 23800   0.871E-02    0.124E-02
DAV:  11    -0.227231827483E+03   -0.23523E-04   -0.42659E-05 22160   0.524E-02    0.826E-03
DAV:  12    -0.227231846015E+03   -0.18532E-04   -0.15941E-05 15640   0.245E-02    0.520E-03
DAV:  13    -0.227231862958E+03   -0.16944E-04   -0.83967E-06 15040   0.183E-02    0.335E-03
DAV:  14    -0.227231871078E+03   -0.81202E-05   -0.39468E-06 15360   0.117E-02
   7 F= -.22723187E+03 E0= -.22723174E+03  d E =-.895107E+00
 curvature:  -0.45 expect dE=-0.953E-02 dE for cont linesearch -0.768E-03
 ZBRENT: interpolating
 opt :  30.4974  next Energy=  -227.247062 (dE=-0.910E+00)
 bond charge predicted
       N       E                     dE             d eps       ncg     rms          rms(c)
DAV:   1    -0.227241634279E+03   -0.97713E-02   -0.87299E+00 22000   0.463E+00    0.236E-01
DAV:   2    -0.227244883830E+03   -0.32496E-02   -0.41485E-02 24000   0.529E-01    0.162E-01
DAV:   3    -0.227245733999E+03   -0.85017E-03   -0.89516E-03 24760   0.103E+00    0.182E-01
DAV:   4    -0.227244616980E+03    0.11170E-02   -0.97922E-03 28120   0.102E+00    0.610E-02
DAV:   5    -0.227244459446E+03    0.15753E-03   -0.10752E-03 38440   0.326E-01    0.173E-02
DAV:   6    -0.227244465669E+03   -0.62229E-05   -0.21455E-04 23480   0.876E-02    0.120E-02
DAV:   7    -0.227244467237E+03   -0.15678E-05   -0.53844E-05 23160   0.400E-02
   8 F= -.22724447E+03 E0= -.22724433E+03  d E =-.907703E+00
 curvature:  -8.87 expect dE=-0.238E+00 dE for cont linesearch -0.233E-03
 trial: gam= 0.61955 g(F)=  0.268E-01 g(S)=  0.000E+00 ort =-0.109E-02 (trialstep = 0.690E+01)
 search vector abs. value=  0.428E-01
 bond charge predicted
       N       E                     dE             d eps       ncg     rms          rms(c)
DAV:   1    -0.227360281770E+03   -0.11582E+00   -0.39530E+01 22000   0.101E+01    0.481E-01
DAV:   2    -0.227373841270E+03   -0.13559E-01   -0.17680E-01 23880   0.124E+00    0.339E-01
DAV:   3    -0.227375026708E+03   -0.11854E-02   -0.26207E-02 25320   0.172E+00    0.331E-01
DAV:   4    -0.227373260325E+03    0.17664E-02   -0.34337E-02 25720   0.196E+00    0.216E-01
DAV:   5    -0.227371657649E+03    0.16027E-02   -0.11823E-02 26360   0.114E+00    0.443E-02
DAV:   6    -0.227371656133E+03    0.15157E-05   -0.15892E-03 29640   0.198E-01    0.275E-02
DAV:   7    -0.227371659959E+03   -0.38257E-05   -0.28324E-04 23920   0.896E-02    0.233E-02
DAV:   8    -0.227371651283E+03    0.86757E-05   -0.64319E-05 23360   0.493E-02
   9 F= -.22737165E+03 E0= -.22737142E+03  d E =-.127184E+00
 trial-energy change:   -0.127184  1 .order   -0.128424   -0.180442   -0.076407
 step:  12.7377(harm= 11.9666)  dis= 0.07162  next Energy=  -227.403227 (dE=-0.159E+00)
 bond charge predicted
       N       E                     dE             d eps       ncg     rms          rms(c)
DAV:   1    -0.227395676728E+03   -0.24017E-01   -0.28231E+01 22000   0.851E+00    0.414E-01
DAV:   2    -0.227405179975E+03   -0.95032E-02   -0.12625E-01 23640   0.105E+00    0.293E-01
DAV:   3    -0.227407342112E+03   -0.21621E-02   -0.27915E-02 25120   0.176E+00    0.320E-01
DAV:   4    -0.227404381423E+03    0.29607E-02   -0.29798E-02 26800   0.180E+00    0.153E-01
DAV:   5    -0.227403645599E+03    0.73582E-03   -0.54846E-03 36680   0.771E-01    0.408E-02
DAV:   6    -0.227403634363E+03    0.11236E-04   -0.89794E-04 25200   0.162E-01    0.235E-02
DAV:   7    -0.227403634827E+03   -0.46394E-06   -0.16587E-04 23880   0.810E-02    0.181E-02
DAV:   8    -0.227403629865E+03    0.49618E-05   -0.56486E-05 22480   0.553E-02
  10 F= -.22740363E+03 E0= -.22740320E+03  d E =-.159163E+00
 curvature:  -9.56 expect dE=-0.596E-01 dE for cont linesearch -0.293E-05
 trial: gam=-0.01589 g(F)=  0.624E-02 g(S)=  0.000E+00 ort = 0.115E-03 (trialstep = 0.807E+01)
 search vector abs. value=  0.624E-02
 bond charge predicted
       N       E                     dE             d eps       ncg     rms          rms(c)
DAV:   1    -0.227436728690E+03   -0.33094E-01   -0.20312E+01 22000   0.712E+00    0.314E-01
DAV:   2    -0.227442173440E+03   -0.54448E-02   -0.75124E-02 24400   0.142E+00    0.317E-01
DAV:   3    -0.227441278117E+03    0.89532E-03   -0.12894E-02 24760   0.108E+00    0.165E-01
DAV:   4    -0.227441124889E+03    0.15323E-03   -0.51352E-03 35080   0.544E-01    0.933E-02
DAV:   5    -0.227440785464E+03    0.33943E-03   -0.56724E-03 25760   0.744E-01    0.687E-02
DAV:   6    -0.227440671602E+03    0.11386E-03   -0.82114E-04 24800   0.274E-01    0.221E-02
DAV:   7    -0.227440679187E+03   -0.75843E-05   -0.21540E-04 24360   0.674E-02    0.129E-02
DAV:   8    -0.227440677613E+03    0.15737E-05   -0.42648E-05 23200   0.419E-02
  11 F= -.22744068E+03 E0= -.22744028E+03  d E =-.370477E-01
 trial-energy change:   -0.037048  1 .order   -0.036965   -0.050306   -0.023623
 step:  15.2091(harm= 15.2091)  dis= 0.03344  next Energy=  -227.451052 (dE=-0.474E-01)
 bond charge predicted
       N       E                     dE             d eps       ncg     rms          rms(c)
DAV:   1    -0.227448747521E+03   -0.80683E-02   -0.15892E+01 22000   0.631E+00    0.275E-01
DAV:   2    -0.227452877010E+03   -0.41295E-02   -0.57211E-02 24400   0.123E+00    0.275E-01
DAV:   3    -0.227452255974E+03    0.62104E-03   -0.10234E-02 25000   0.956E-01    0.148E-01
DAV:   4    -0.227452559667E+03   -0.30369E-03   -0.67539E-03 37160   0.758E-01    0.125E-01
DAV:   5    -0.227451779525E+03    0.78014E-03   -0.61526E-03 26360   0.785E-01    0.461E-02
DAV:   6    -0.227451765660E+03    0.13865E-04   -0.61904E-04 24000   0.166E-01    0.186E-02
DAV:   7    -0.227451771149E+03   -0.54893E-05   -0.14796E-04 24000   0.569E-02    0.120E-02
DAV:   8    -0.227451768808E+03    0.23412E-05   -0.24005E-05 17120   0.333E-02
  12 F= -.22745177E+03 E0= -.22745140E+03  d E =-.481389E-01
 curvature:  -7.62 expect dE=-0.201E-01 dE for cont linesearch -0.219E-04
 trial: gam= 0.39890 g(F)=  0.263E-02 g(S)=  0.000E+00 ort = 0.134E-03 (trialstep = 0.950E+01)
 search vector abs. value=  0.373E-02
 bond charge predicted
       N       E                     dE             d eps       ncg     rms          rms(c)
DAV:   1    -0.227469979055E+03   -0.18208E-01   -0.13762E+01 22000   0.589E+00    0.306E-01
DAV:   2    -0.227472851425E+03   -0.28724E-02   -0.47132E-02 23920   0.123E+00    0.270E-01
DAV:   3    -0.227472530242E+03    0.32118E-03   -0.15896E-02 25000   0.128E+00    0.180E-01
DAV:   4    -0.227473119370E+03   -0.58913E-03   -0.15096E-02 25480   0.126E+00    0.186E-01
DAV:   5    -0.227471717911E+03    0.14015E-02   -0.68685E-03 33920   0.814E-01    0.389E-02
DAV:   6    -0.227471746415E+03   -0.28505E-04   -0.73736E-04 24360   0.141E-01    0.186E-02
DAV:   7    -0.227471752839E+03   -0.64236E-05   -0.17554E-04 24120   0.711E-02    0.105E-02
DAV:   8    -0.227471751474E+03    0.13649E-05   -0.21922E-05 17440   0.230E-02
  13 F= -.22747175E+03 E0= -.22747135E+03  d E =-.199827E-01
 trial-energy change:   -0.019983  1 .order   -0.019482   -0.025520   -0.013443
 step:  16.8299(harm= 20.0661)  dis= 0.01676  next Energy=  -227.477174 (dE=-0.254E-01)
 bond charge predicted
       N       E                     dE             d eps       ncg     rms          rms(c)
DAV:   1    -0.227477005512E+03   -0.52527E-02   -0.81984E+00 22000   0.455E+00    0.233E-01
DAV:   2    -0.227478699221E+03   -0.16937E-02   -0.27367E-02 23720   0.887E-01    0.200E-01
DAV:   3    -0.227478553899E+03    0.14532E-03   -0.86148E-03 25000   0.932E-01    0.140E-01
DAV:   4    -0.227479022728E+03   -0.46883E-03   -0.91974E-03 25720   0.986E-01    0.148E-01
DAV:   5    -0.227478095650E+03    0.92708E-03   -0.46133E-03 34240   0.675E-01    0.295E-02
DAV:   6    -0.227478114945E+03   -0.19295E-04   -0.45933E-04 23840   0.102E-01    0.140E-02
DAV:   7    -0.227478117255E+03   -0.23093E-05   -0.89822E-05 23960   0.520E-02
  14 F= -.22747812E+03 E0= -.22747768E+03  d E =-.263484E-01
 curvature: -12.64 expect dE=-0.137E-01 dE for cont linesearch -0.290E-03
 ZBRENT: extrapolating
 opt :  18.7420  next Energy=  -227.478397 (dE=-0.266E-01)
 bond charge predicted
       N       E                     dE             d eps       ncg     rms          rms(c)
DAV:   1    -0.227478364750E+03   -0.24980E-03   -0.55614E-01 22000   0.118E+00    0.595E-02
DAV:   2    -0.227478484126E+03   -0.11938E-03   -0.17756E-03 23720   0.209E-01    0.489E-02
DAV:   3    -0.227478487538E+03   -0.34118E-05   -0.58213E-04 25000   0.237E-01    0.379E-02
DAV:   4    -0.227478516955E+03   -0.29417E-04   -0.61514E-04 25480   0.257E-01    0.380E-02
DAV:   5    -0.227478458093E+03    0.58862E-04   -0.29441E-04 25880   0.174E-01    0.683E-03
DAV:   6    -0.227478460000E+03   -0.19077E-05   -0.35928E-05 23000   0.257E-02
  15 F= -.22747846E+03 E0= -.22747801E+03  d E =-.266912E-01
 curvature: -12.20 expect dE=-0.156E-01 dE for cont linesearch -0.806E-06
 trial: gam= 0.40909 g(F)=  0.128E-02 g(S)=  0.000E+00 ort = 0.157E-04 (trialstep = 0.113E+02)
 search vector abs. value=  0.192E-02
 bond charge predicted
       N       E                     dE             d eps       ncg     rms          rms(c)
DAV:   1    -0.227489605816E+03   -0.11148E-01   -0.64575E+00 22000   0.410E+00    0.196E-01
DAV:   2    -0.227490994690E+03   -0.13889E-02   -0.21973E-02 23440   0.650E-01    0.163E-01
DAV:   3    -0.227490991297E+03    0.33931E-05   -0.54927E-03 25000   0.757E-01    0.128E-01
DAV:   4    -0.227491210624E+03   -0.21933E-03   -0.69522E-03 26280   0.857E-01    0.120E-01
DAV:   5    -0.227490554982E+03    0.65564E-03   -0.35642E-03 35320   0.596E-01    0.218E-02
DAV:   6    -0.227490573147E+03   -0.18165E-04   -0.35132E-04 23960   0.778E-02    0.124E-02
DAV:   7    -0.227490574553E+03   -0.14058E-05   -0.53815E-05 23600   0.398E-02
  16 F= -.22749057E+03 E0= -.22749006E+03  d E =-.121146E-01
 trial-energy change:   -0.012115  1 .order   -0.011888   -0.014575   -0.009201
 step:  23.9992(harm= 30.7711)  dis= 0.00717  next Energy=  -227.496021 (dE=-0.176E-01)
 bond charge predicted
       N       E                     dE             d eps       ncg     rms          rms(c)
DAV:   1    -0.227496470331E+03   -0.58972E-02   -0.80406E+00 22000   0.458E+00    0.221E-01
DAV:   2    -0.227498272903E+03   -0.18026E-02   -0.27963E-02 23280   0.756E-01    0.186E-01
DAV:   3    -0.227498268051E+03    0.48519E-05   -0.72183E-03 25000   0.868E-01    0.144E-01
DAV:   4    -0.227498557348E+03   -0.28930E-03   -0.88537E-03 26160   0.966E-01    0.136E-01
DAV:   5    -0.227497721473E+03    0.83587E-03   -0.44382E-03 35040   0.666E-01    0.243E-02
DAV:   6    -0.227497746140E+03   -0.24667E-04   -0.44881E-04 23960   0.902E-02    0.141E-02
DAV:   7    -0.227497748382E+03   -0.22415E-05   -0.73115E-05 23960   0.471E-02
  17 F= -.22749775E+03 E0= -.22749717E+03  d E =-.192884E-01
 curvature: -20.16 expect dE=-0.617E-02 dE for cont linesearch -0.807E-03
 ZBRENT: increasing intervall
 opt :  49.3081  next Energy=  -227.491238 (dE=-0.128E-01)
 bond charge predicted
       N       E                     dE             d eps       ncg     rms          rms(c)
DAV:   1    -0.227485242861E+03    0.12503E-01   -0.32356E+01 22000   0.920E+00    0.459E-01
DAV:   2    -0.227493533144E+03   -0.82903E-02   -0.12596E-01 23920   0.180E+00    0.409E-01
DAV:   3    -0.227492764214E+03    0.76893E-03   -0.30766E-02 25000   0.182E+00    0.278E-01
DAV:   4    -0.227494421502E+03   -0.16573E-02   -0.36039E-02 26240   0.194E+00    0.288E-01
DAV:   5    -0.227490733025E+03    0.36885E-02   -0.18891E-02 33680   0.136E+00    0.535E-02
DAV:   6    -0.227490838764E+03   -0.10574E-03   -0.19384E-03 23600   0.214E-01    0.319E-02
DAV:   7    -0.227490854007E+03   -0.15244E-04   -0.41202E-04 24000   0.113E-01    0.187E-02
DAV:   8    -0.227490848179E+03    0.58280E-05   -0.40118E-05 23520   0.280E-02
  18 F= -.22749085E+03 E0= -.22749017E+03  d E =-.123882E-01
 curvature: 162.68 expect dE= 0.284E+00 dE for cont linesearch  0.678E-01
 ZBRENT: bracketing found
 ZBRENT: interpolating
 opt :  29.9860  next Energy=  -227.498577 (dE=-0.201E-01)
 bond charge predicted
       N       E                     dE             d eps       ncg     rms          rms(c)
DAV:   1    -0.227495933726E+03   -0.50797E-02   -0.18806E+01 22000   0.701E+00    0.331E-01
DAV:   2    -0.227500029727E+03   -0.40960E-02   -0.65403E-02 23040   0.813E-01    0.246E-01
DAV:   3    -0.227500477759E+03   -0.44803E-03   -0.15221E-02 25000   0.129E+00    0.248E-01
DAV:   4    -0.227499820212E+03    0.65755E-03   -0.18707E-02 28360   0.142E+00    0.169E-01
DAV:   5    -0.227498696958E+03    0.11233E-02   -0.71131E-03 34480   0.858E-01    0.418E-02
DAV:   6    -0.227498706640E+03   -0.96817E-05   -0.81344E-04 25000   0.128E-01    0.206E-02
DAV:   7    -0.227498707449E+03   -0.80913E-06   -0.11806E-04 23880   0.580E-02    0.156E-02
DAV:   8    -0.227498704009E+03    0.34399E-05   -0.27708E-05 17080   0.384E-02
  19 F= -.22749870E+03 E0= -.22749809E+03  d E =-.202440E-01
 curvature:  -1.99 expect dE=-0.846E-03 dE for cont linesearch -0.775E-06
 trial: gam= 0.36103 g(F)=  0.426E-03 g(S)=  0.000E+00 ort = 0.273E-04 (trialstep = 0.151E+02)
 search vector abs. value=  0.695E-03
 bond charge predicted
       N       E                     dE             d eps       ncg     rms          rms(c)
DAV:   1    -0.227500128168E+03   -0.14207E-02   -0.65978E+00 22000   0.417E+00    0.170E-01
DAV:   2    -0.227502021863E+03   -0.18937E-02   -0.25237E-02 23880   0.672E-01    0.158E-01
DAV:   3    -0.227501974108E+03    0.47755E-04   -0.44852E-03 25000   0.624E-01    0.107E-01
DAV:   4    -0.227502198927E+03   -0.22482E-03   -0.47421E-03 27040   0.700E-01    0.102E-01
DAV:   5    -0.227501668450E+03    0.53048E-03   -0.31666E-03 35880   0.566E-01    0.197E-02
DAV:   6    -0.227501683386E+03   -0.14936E-04   -0.29434E-04 23840   0.812E-02    0.117E-02
DAV:   7    -0.227501685201E+03   -0.18151E-05   -0.50755E-05 24000   0.338E-02
  20 F= -.22750169E+03 E0= -.22750105E+03  d E =-.298119E-02
 trial-energy change:   -0.002981  1 .order   -0.002769   -0.006563    0.001025
 step:  13.2998(harm= 13.0373)  dis= 0.00672  next Energy=  -227.501745 (dE=-0.304E-02)
 bond charge predicted
       N       E                     dE             d eps       ncg     rms          rms(c)
DAV:   1    -0.227501714808E+03   -0.31422E-04   -0.91224E-02 22000   0.491E-01    0.216E-02
DAV:   2    -0.227501732958E+03   -0.18150E-04   -0.33290E-04 24000   0.602E-02    0.167E-02
DAV:   3    -0.227501729920E+03    0.30375E-05   -0.48268E-05 24880   0.701E-02
  21 F= -.22750173E+03 E0= -.22750110E+03  d E =-.302591E-02
 curvature: -10.23 expect dE=-0.870E-03 dE for cont linesearch -0.647E-06
 trial: gam= 0.18940 g(F)=  0.850E-04 g(S)=  0.000E+00 ort = 0.663E-05 (trialstep = 0.147E+02)
 search vector abs. value=  0.112E-03
 bond charge predicted
       N       E                     dE             d eps       ncg     rms          rms(c)
DAV:   1    -0.227502301823E+03   -0.56887E-03   -0.10938E+00 22000   0.171E+00    0.714E-02
DAV:   2    -0.227502553165E+03   -0.25134E-03   -0.36471E-03 24000   0.280E-01    0.646E-02
DAV:   3    -0.227502555715E+03   -0.25501E-05   -0.95506E-04 25000   0.293E-01    0.479E-02
DAV:   4    -0.227502572663E+03   -0.16948E-04   -0.89726E-04 25560   0.318E-01    0.478E-02
DAV:   5    -0.227502498462E+03    0.74201E-04   -0.45545E-04 27600   0.216E-01    0.120E-02
DAV:   6    -0.227502499528E+03   -0.10661E-05   -0.86366E-05 23800   0.375E-02
  22 F= -.22750250E+03 E0= -.22750186E+03  d E =-.769608E-03
 trial-energy change:   -0.000770  1 .order   -0.000708   -0.001270   -0.000146
 step:  16.1271(harm= 16.6343)  dis= 0.00519  next Energy=  -227.502507 (dE=-0.777E-03)
 bond charge predicted
       N       E                     dE             d eps       ncg     rms          rms(c)
DAV:   1    -0.227502514982E+03   -0.16520E-04   -0.10052E-02 22000   0.165E-01    0.804E-03
DAV:   2    -0.227502519255E+03   -0.42726E-05   -0.44986E-05 22800   0.497E-02
  23 F= -.22750252E+03 E0= -.22750188E+03  d E =-.789335E-03
 curvature: -10.08 expect dE=-0.274E-03 dE for cont linesearch -0.273E-05
 trial: gam= 0.21520 g(F)=  0.272E-04 g(S)=  0.000E+00 ort = 0.552E-05 (trialstep = 0.150E+02)
 search vector abs. value=  0.348E-04
 bond charge predicted
       N       E                     dE             d eps       ncg     rms          rms(c)
DAV:   1    -0.227502663460E+03   -0.14848E-03   -0.38320E-01 22000   0.101E+00    0.424E-02
DAV:   2    -0.227502768616E+03   -0.10516E-03   -0.13631E-03 24040   0.236E-01    0.459E-02
DAV:   3    -0.227502762487E+03    0.61288E-05   -0.66445E-04 25000   0.242E-01    0.285E-02
DAV:   4    -0.227502754324E+03    0.81630E-05   -0.22344E-04 24840   0.151E-01    0.220E-02
DAV:   5    -0.227502745154E+03    0.91696E-05   -0.74175E-05 24880   0.820E-02
  24 F= -.22750275E+03 E0= -.22750211E+03  d E =-.225899E-03
 trial-energy change:   -0.000226  1 .order   -0.000185   -0.000426    0.000055
 step:  13.8249(harm= 13.2771)  dis= 0.00146  next Energy=  -227.502747 (dE=-0.228E-03)
 bond charge predicted
       N       E                     dE             d eps       ncg     rms          rms(c)
DAV:   1    -0.227502748013E+03    0.63109E-05   -0.23577E-03 22240   0.805E-02    0.551E-03
DAV:   2    -0.227502747628E+03    0.38500E-06   -0.82536E-06 13400   0.261E-02
  25 F= -.22750275E+03 E0= -.22750211E+03  d E =-.228373E-03
 curvature:  -7.31 expect dE=-0.658E-04 dE for cont linesearch -0.336E-08
 trial: gam= 0.37833 g(F)=  0.900E-05 g(S)=  0.000E+00 ort =-0.126E-06 (trialstep = 0.148E+02)
 search vector abs. value=  0.139E-04
 bond charge predicted
       N       E                     dE             d eps       ncg     rms          rms(c)
DAV:   1    -0.227502783696E+03   -0.35683E-04   -0.14943E-01 22000   0.626E-01    0.260E-02
DAV:   2    -0.227502825295E+03   -0.41600E-04   -0.51426E-04 24240   0.170E-01    0.303E-02
DAV:   3    -0.227502817016E+03    0.82795E-05   -0.27879E-04 24960   0.160E-01    0.169E-02
DAV:   4    -0.227502814102E+03    0.29136E-05   -0.81417E-05 23760   0.880E-02
  26 F= -.22750281E+03 E0= -.22750218E+03  d E =-.664744E-04
 trial-energy change:   -0.000066  1 .order   -0.000057   -0.000132    0.000019
 step:  12.9505(harm= 12.9505)  dis= 0.00050  next Energy=  -227.502806 (dE=-0.580E-04)
 bond charge predicted
       N       E                     dE             d eps       ncg     rms          rms(c)
DAV:   1    -0.227502814121E+03    0.28945E-05   -0.22693E-03 22480   0.874E-02    0.441E-03
DAV:   2    -0.227502814361E+03   -0.23928E-06   -0.11403E-05 14360   0.238E-02
  27 F= -.22750281E+03 E0= -.22750218E+03  d E =-.667328E-04
 curvature: -10.04 expect dE=-0.232E-04 dE for cont linesearch -0.171E-06
 trial: gam= 0.08341 g(F)=  0.231E-05 g(S)=  0.000E+00 ort = 0.486E-06 (trialstep = 0.144E+02)
 search vector abs. value=  0.249E-05
 reached required accuracy - stopping structural energy minimisation
 writing wavefunctions
