 vasp.5.4.1 05Feb16 (build Nov 22 2018 20:17:51) complex                        
  
 POSCAR found type information on POSCAR  Pd
 03/POSCAR found :  1 types and      33 ions
 scaLAPACK will be used

 ----------------------------------------------------------------------------- 
|                                                                             |
|           W    W    AA    RRRRR   N    N  II  N    N   GGGG   !!!           |
|           W    W   A  A   R    R  NN   N  II  NN   N  G    G  !!!           |
|           W    W  A    A  R    R  N N  N  II  N N  N  G       !!!           |
|           W WW W  AAAAAA  RRRRR   N  N N  II  N  N N  G  GGG   !            |
|           WW  WW  A    A  R   R   N   NN  II  N   NN  G    G                |
|           W    W  A    A  R    R  N    N  II  N    N   GGGG   !!!           |
|                                                                             |
|      For optimal performance we recommend to set                            |
|        NCORE= 4 - approx SQRT( number of cores)                             |
|      NCORE specifies how many cores store one orbital (NPAR=cpu/NCORE).     |
|      This setting can  greatly improve the performance of VASP for DFT.     |
|      The default, NPAR=number of cores might be grossly inefficient         |
|      on modern multi-core architectures or massively parallel machines.     |
|      Do your own testing !!!!                                               |
|      Unfortunately you need to use the default for GW and RPA calculations. |
|      (for HF NCORE is supported but not extensively tested yet)             |
|                                                                             |
 ----------------------------------------------------------------------------- 

 LDA part: xc-table for Ceperly-Alder, standard interpolation
 POSCAR found type information on POSCAR  Pd
 00/POSCAR found :  1 types and      33 ions
 POSCAR found type information on POSCAR  Pd
 06/POSCAR found :  1 types and      33 ions
 Jacobian:    20.4934437754924     
 POSCAR, INCAR and KPOINTS ok, starting setup
 WARNING: small aliasing (wrap around) errors must be expected
 FFT: planning ...
 WAVECAR not read
 entering main loop
       N       E                     dE             d eps       ncg     rms          rms(c)
DAV:   1     0.285518878670E+04    0.28552E+04   -0.13723E+05 10000   0.138E+03
DAV:   2     0.746151813754E+02   -0.27806E+04   -0.25991E+04 10256   0.415E+02
DAV:   3    -0.151908372196E+03   -0.22652E+03   -0.20391E+03 11592   0.112E+02
DAV:   4    -0.163989510712E+03   -0.12081E+02   -0.11174E+02 11608   0.275E+01
DAV:   5    -0.164280738501E+03   -0.29123E+00   -0.29038E+00 12112   0.383E+00    0.161E+01
RMM:   6    -0.172493570909E+03   -0.82128E+01   -0.32250E+01 10000   0.162E+01    0.239E+01
RMM:   7    -0.174127329130E+03   -0.16338E+01   -0.12770E+01 10028   0.823E+00    0.272E+01
RMM:   8    -0.162128154792E+03    0.11999E+02   -0.10227E+01 10022   0.842E+00    0.179E+01
RMM:   9    -0.157687951485E+03    0.44402E+01   -0.36849E+00 10010   0.557E+00    0.690E+00
RMM:  10    -0.157081871476E+03    0.60608E+00   -0.72742E-01 10022   0.223E+00    0.388E+00
RMM:  11    -0.157151473890E+03   -0.69602E-01   -0.33303E-01 10020   0.151E+00    0.509E+00
RMM:  12    -0.156942897652E+03    0.20858E+00   -0.18208E-01 10017   0.122E+00    0.276E+00
RMM:  13    -0.156904584765E+03    0.38313E-01   -0.18821E-01 10016   0.115E+00    0.266E+00
RMM:  14    -0.156852898347E+03    0.51686E-01   -0.10274E-01 10018   0.894E-01    0.224E+00
RMM:  15    -0.156806750941E+03    0.46147E-01   -0.41425E-02 10015   0.562E-01    0.102E+00
RMM:  16    -0.156799012526E+03    0.77384E-02   -0.24924E-02 10017   0.384E-01    0.108E+00
RMM:  17    -0.156868181006E+03   -0.69168E-01   -0.21762E-02 10029   0.289E-01    0.262E+00
RMM:  18    -0.156892842812E+03   -0.24662E-01   -0.49826E-03 10351   0.152E-01    0.288E+00
RMM:  19    -0.156865723019E+03    0.27120E-01   -0.12143E-03 10075   0.826E-02    0.245E+00
RMM:  20    -0.156795243038E+03    0.70480E-01   -0.85344E-03 10023   0.173E-01    0.947E-01
RMM:  21    -0.156781727427E+03    0.13516E-01   -0.76311E-03 10043   0.169E-01    0.376E-01
RMM:  22    -0.156828032028E+03   -0.46305E-01   -0.15011E-02 10039   0.202E-01    0.208E+00
RMM:  23    -0.156783037526E+03    0.44995E-01   -0.27306E-03 10016   0.107E-01    0.864E-01
RMM:  24    -0.156773549631E+03    0.94879E-02   -0.18272E-03 10031   0.903E-02    0.502E-01
RMM:  25    -0.156768869558E+03    0.46801E-02   -0.12882E-03 10122   0.617E-02    0.166E-01
RMM:  26    -0.156767895621E+03    0.97394E-03   -0.64856E-04 10070   0.534E-02    0.148E-01
RMM:  27    -0.156766488498E+03    0.14071E-02   -0.56929E-04 10013   0.443E-02    0.920E-02
RMM:  28    -0.156766612356E+03   -0.12386E-03   -0.35669E-04 10032   0.345E-02    0.130E-01
RMM:  29    -0.156768793524E+03   -0.21812E-02   -0.66249E-04 10004   0.437E-02    0.242E-01
RMM:  30    -0.156769250359E+03   -0.45684E-03   -0.23295E-04  9974   0.284E-02    0.873E-02
RMM:  31    -0.156771136830E+03   -0.18865E-02   -0.26702E-04  9848   0.276E-02    0.101E-01
RMM:  32    -0.156771881475E+03   -0.74465E-03   -0.16619E-04  7825   0.171E-02    0.588E-02
RMM:  33    -0.156772465791E+03   -0.58432E-03   -0.15672E-04  8283   0.166E-02    0.557E-02
RMM:  34    -0.156772626588E+03   -0.16080E-03   -0.46619E-05  6845   0.942E-03    0.477E-02
RMM:  35    -0.156772791957E+03   -0.16537E-03   -0.49647E-05  7002   0.950E-03    0.403E-02
RMM:  36    -0.156772805448E+03   -0.13491E-04   -0.15287E-05  6016   0.664E-03    0.211E-02
RMM:  37    -0.156772827365E+03   -0.21916E-04   -0.77936E-06  5663   0.551E-03    0.203E-02
RMM:  38    -0.156772840032E+03   -0.12668E-04   -0.24794E-06  5322   0.344E-03    0.266E-02
RMM:  39    -0.156772838542E+03    0.14907E-05   -0.99193E-07  4596   0.282E-03
   1 F= -.15677284E+03 E0= -.15677013E+03  d E =-.156773E+03
quench:  g(F)=  0.000E+00 g(S)=  0.000E+00 dE (1.order)= 0.000E+00
 bond charge predicted
       N       E                     dE             d eps       ncg     rms          rms(c)
DAV:   1    -0.157583160963E+03   -0.81032E+00   -0.89700E+01 10136   0.177E+01    0.215E+00
RMM:   2    -0.158455151662E+03   -0.87199E+00   -0.29166E+00 10122   0.368E+00    0.850E+00
RMM:   3    -0.158065217392E+03    0.38993E+00   -0.66954E-01 10517   0.176E+00    0.479E+00
RMM:   4    -0.157958718934E+03    0.10650E+00   -0.21363E-01 10038   0.119E+00    0.354E+00
RMM:   5    -0.157819884807E+03    0.13883E+00   -0.55887E-02 10030   0.644E-01    0.113E+00
RMM:   6    -0.157810239287E+03    0.96455E-02   -0.13298E-02 10033   0.309E-01    0.100E+00
RMM:   7    -0.157804233872E+03    0.60054E-02   -0.10530E-02 10101   0.247E-01    0.778E-01
RMM:   8    -0.157798042945E+03    0.61909E-02   -0.11900E-02 10091   0.256E-01    0.496E-01
RMM:   9    -0.157797081479E+03    0.96147E-03   -0.99828E-03 10192   0.228E-01    0.482E-01
RMM:  10    -0.157796008251E+03    0.10732E-02   -0.59284E-03 10253   0.172E-01    0.315E-01
RMM:  11    -0.157795181987E+03    0.82626E-03   -0.19199E-03 10214   0.103E-01    0.119E-01
RMM:  12    -0.157795103049E+03    0.78938E-04   -0.38501E-04 10017   0.526E-02    0.139E-01
RMM:  13    -0.157794926991E+03    0.17606E-03   -0.20525E-04  9993   0.370E-02    0.733E-02
RMM:  14    -0.157794872473E+03    0.54518E-04   -0.12787E-04 10088   0.282E-02    0.481E-02
RMM:  15    -0.157794865472E+03    0.70009E-05   -0.89781E-05  9016   0.203E-02
   2 F= -.15779487E+03 E0= -.15779214E+03  d E =-.102203E+01
quench:  g(F)=  0.000E+00 g(S)=  0.000E+00 dE (1.order)= 0.000E+00
 bond charge predicted
       N       E                     dE             d eps       ncg     rms          rms(c)
DAV:   1    -0.157942830684E+03   -0.14796E+00   -0.17060E+02 10000   0.266E+01    0.259E+00
RMM:   2    -0.159008680928E+03   -0.10659E+01   -0.62695E+00 10143   0.595E+00    0.752E+00
RMM:   3    -0.158917688947E+03    0.90992E-01   -0.14612E+00 12959   0.244E+00    0.632E+00
RMM:   4    -0.158675745737E+03    0.24194E+00   -0.22898E-01 10038   0.128E+00    0.386E+00
RMM:   5    -0.158499218907E+03    0.17653E+00   -0.70623E-02 10035   0.748E-01    0.151E+00
RMM:   6    -0.158484542453E+03    0.14676E-01   -0.23850E-02 10064   0.359E-01    0.137E+00
RMM:   7    -0.158473401608E+03    0.11141E-01   -0.18752E-02 10285   0.301E-01    0.110E+00
RMM:   8    -0.158461440876E+03    0.11961E-01   -0.24201E-02 10181   0.342E-01    0.688E-01
RMM:   9    -0.158456609750E+03    0.48311E-02   -0.26334E-02 10916   0.327E-01    0.437E-01
RMM:  10    -0.158456080594E+03    0.52916E-03   -0.15848E-02 11536   0.246E-01    0.335E-01
RMM:  11    -0.158455764378E+03    0.31622E-03   -0.36436E-03 10507   0.142E-01    0.230E-01
RMM:  12    -0.158455237886E+03    0.52649E-03   -0.64217E-04 10027   0.661E-02    0.188E-01
RMM:  13    -0.158454859798E+03    0.37809E-03   -0.37609E-04 10019   0.516E-02    0.119E-01
RMM:  14    -0.158454693766E+03    0.16603E-03   -0.62392E-04 10126   0.512E-02    0.854E-02
RMM:  15    -0.158454638157E+03    0.55609E-04   -0.41483E-04 11803   0.375E-02    0.372E-02
RMM:  16    -0.158454646280E+03   -0.81232E-05   -0.54570E-05  7886   0.183E-02
   3 F= -.15845465E+03 E0= -.15845171E+03  d E =-.659781E+00
quench:  g(F)=  0.000E+00 g(S)=  0.000E+00 dE (1.order)= 0.000E+00
 bond charge predicted
       N       E                     dE             d eps       ncg     rms          rms(c)
DAV:   1    -0.158248002940E+03    0.20664E+00   -0.17172E+02 10048   0.275E+01    0.248E+00
RMM:   2    -0.159008237056E+03   -0.76023E+00   -0.62784E+00 10044   0.643E+00    0.540E+00
RMM:   3    -0.159521046160E+03   -0.51281E+00   -0.15711E+00 13639   0.238E+00    0.821E+00
RMM:   4    -0.158973751328E+03    0.54729E+00   -0.26651E-01 10036   0.137E+00    0.368E+00
RMM:   5    -0.158800633837E+03    0.17312E+00   -0.77855E-02 10033   0.771E-01    0.150E+00
RMM:   6    -0.158783955472E+03    0.16678E-01   -0.21314E-02 10031   0.350E-01    0.132E+00
RMM:   7    -0.158768672312E+03    0.15283E-01   -0.21627E-02 10585   0.304E-01    0.953E-01
RMM:   8    -0.158756261346E+03    0.12411E-01   -0.32081E-02 10650   0.354E-01    0.570E-01
RMM:   9    -0.158753946983E+03    0.23144E-02   -0.30100E-02 11605   0.338E-01    0.494E-01
RMM:  10    -0.158753595482E+03    0.35150E-03   -0.16244E-02 11621   0.252E-01    0.345E-01
RMM:  11    -0.158753061807E+03    0.53368E-03   -0.21621E-03 10356   0.116E-01    0.291E-01
RMM:  12    -0.158752313285E+03    0.74852E-03   -0.79715E-04 10019   0.765E-02    0.227E-01
RMM:  13    -0.158751714716E+03    0.59857E-03   -0.62323E-04 10022   0.605E-02    0.153E-01
RMM:  14    -0.158751473613E+03    0.24110E-03   -0.62192E-04 10841   0.506E-02    0.105E-01
RMM:  15    -0.158751331392E+03    0.14222E-03   -0.80645E-04 10913   0.546E-02    0.388E-02
RMM:  16    -0.158751345292E+03   -0.13900E-04   -0.17471E-04 11573   0.271E-02    0.256E-02
RMM:  17    -0.158751361798E+03   -0.16506E-04   -0.17982E-05  5722   0.119E-02    0.220E-02
RMM:  18    -0.158751365640E+03   -0.38412E-05   -0.94525E-06  5502   0.116E-02
   4 F= -.15875137E+03 E0= -.15874781E+03  d E =-.296719E+00
quench:  g(F)=  0.000E+00 g(S)=  0.000E+00 dE (1.order)= 0.000E+00
 bond charge predicted
       N       E                     dE             d eps       ncg     rms          rms(c)
DAV:   1    -0.158626415356E+03    0.12495E+00   -0.76705E+01 10032   0.183E+01    0.144E+00
RMM:   2    -0.158994074501E+03   -0.36766E+00   -0.25447E+00 10043   0.380E+00    0.407E+00
RMM:   3    -0.159038881994E+03   -0.44807E-01   -0.51381E-01 13707   0.144E+00    0.437E+00
RMM:   4    -0.158905291112E+03    0.13359E+00   -0.89669E-02 10034   0.803E-01    0.239E+00
RMM:   5    -0.158849334830E+03    0.55956E-01   -0.24627E-02 10031   0.450E-01    0.996E-01
RMM:   6    -0.158841547981E+03    0.77868E-02   -0.63551E-03 10048   0.209E-01    0.810E-01
RMM:   7    -0.158836748440E+03    0.47995E-02   -0.61912E-03 10459   0.167E-01    0.662E-01
RMM:   8    -0.158830122524E+03    0.66259E-02   -0.14834E-02 10433   0.236E-01    0.400E-01
RMM:   9    -0.158829360597E+03    0.76193E-03   -0.15971E-02 11902   0.247E-01    0.372E-01
RMM:  10    -0.158828942845E+03    0.41775E-03   -0.87717E-03 11587   0.190E-01    0.199E-01
RMM:  11    -0.158828603409E+03    0.33944E-03   -0.74402E-04 10172   0.722E-02    0.168E-01
RMM:  12    -0.158828089507E+03    0.51390E-03   -0.56550E-04 10017   0.530E-02    0.103E-01
RMM:  13    -0.158827967424E+03    0.12208E-03   -0.32087E-04 10752   0.364E-02    0.632E-02
RMM:  14    -0.158827933252E+03    0.34172E-04   -0.21471E-04 11635   0.289E-02    0.391E-02
RMM:  15    -0.158827933954E+03   -0.70158E-06   -0.90075E-05  9849   0.196E-02
   5 F= -.15882793E+03 E0= -.15882456E+03  d E =-.765683E-01
quench:  g(F)=  0.000E+00 g(S)=  0.000E+00 dE (1.order)= 0.000E+00
 bond charge predicted
       N       E                     dE             d eps       ncg     rms          rms(c)
DAV:   1    -0.158814961010E+03    0.12972E-01   -0.11461E+01 10176   0.703E+00    0.535E-01
RMM:   2    -0.158852801603E+03   -0.37841E-01   -0.35955E-01 10041   0.132E+00    0.968E-01
RMM:   3    -0.158883476464E+03   -0.30675E-01   -0.60176E-02 13078   0.507E-01    0.194E+00
RMM:   4    -0.158853176911E+03    0.30300E-01   -0.12281E-02 10040   0.281E-01    0.825E-01
RMM:   5    -0.158845597843E+03    0.75791E-02   -0.34326E-03 10031   0.165E-01    0.321E-01
RMM:   6    -0.158844806261E+03    0.79158E-03   -0.79609E-04 10037   0.733E-02    0.285E-01
RMM:   7    -0.158844068350E+03    0.73791E-03   -0.97798E-04 10318   0.659E-02    0.217E-01
RMM:   8    -0.158843309991E+03    0.75836E-03   -0.28964E-03 10412   0.103E-01    0.158E-01
RMM:   9    -0.158843292495E+03    0.17496E-04   -0.22873E-03 12181   0.907E-02    0.127E-01
RMM:  10    -0.158843302118E+03   -0.96231E-05   -0.64886E-04 10984   0.563E-02    0.990E-02
RMM:  11    -0.158843214594E+03    0.87523E-04   -0.10963E-04  9959   0.271E-02    0.659E-02
RMM:  12    -0.158843161330E+03    0.53265E-04   -0.34176E-05  6491   0.148E-02    0.549E-02
RMM:  13    -0.158843105611E+03    0.55719E-04   -0.13152E-04  9840   0.236E-02    0.271E-02
RMM:  14    -0.158843097911E+03    0.77003E-05   -0.57032E-05  8156   0.157E-02
   6 F= -.15884310E+03 E0= -.15883981E+03  d E =-.151640E-01
quench:  g(F)=  0.000E+00 g(S)=  0.000E+00 dE (1.order)= 0.000E+00
 bond charge predicted
       N       E                     dE             d eps       ncg     rms          rms(c)
DAV:   1    -0.158844758316E+03   -0.16527E-02   -0.56192E-01 10256   0.156E+00    0.113E-01
RMM:   2    -0.158847564525E+03   -0.28062E-02   -0.18222E-02 10050   0.292E-01    0.367E-01
RMM:   3    -0.158847324477E+03    0.24005E-03   -0.27494E-03 13563   0.101E-01    0.328E-01
RMM:   4    -0.158846574946E+03    0.74953E-03   -0.58029E-04 10022   0.642E-02    0.198E-01
RMM:   5    -0.158846238033E+03    0.33691E-03   -0.15403E-04 10002   0.365E-02    0.737E-02
RMM:   6    -0.158846181500E+03    0.56533E-04   -0.37707E-05  6815   0.183E-02    0.612E-02
RMM:   7    -0.158846146729E+03    0.34771E-04   -0.60618E-05  8488   0.177E-02    0.505E-02
RMM:   8    -0.158846101078E+03    0.45651E-04   -0.20464E-04 10159   0.273E-02    0.267E-02
RMM:   9    -0.158846105662E+03   -0.45836E-05   -0.85023E-05  9540   0.192E-02
   7 F= -.15884611E+03 E0= -.15884285E+03  d E =-.300775E-02
quench:  g(F)=  0.000E+00 g(S)=  0.000E+00 dE (1.order)= 0.000E+00
 bond charge predicted
       N       E                     dE             d eps       ncg     rms          rms(c)
DAV:   1    -0.158847020050E+03   -0.91897E-03   -0.90340E-01 10080   0.198E+00    0.150E-01
RMM:   2    -0.158852399461E+03   -0.53794E-02   -0.29162E-02 10046   0.365E-01    0.548E-01
RMM:   3    -0.158851001807E+03    0.13977E-02   -0.43726E-03 13214   0.127E-01    0.401E-01
RMM:   4    -0.158849973076E+03    0.10287E-02   -0.10560E-03 10028   0.869E-02    0.260E-01
RMM:   5    -0.158849380434E+03    0.59264E-03   -0.25242E-04 10017   0.471E-02    0.919E-02
RMM:   6    -0.158849289139E+03    0.91295E-04   -0.60515E-05  8609   0.226E-02    0.739E-02
RMM:   7    -0.158849237211E+03    0.51928E-04   -0.75739E-05  9025   0.191E-02    0.599E-02
RMM:   8    -0.158849169517E+03    0.67694E-04   -0.28224E-04 10196   0.315E-02    0.391E-02
RMM:   9    -0.158849167822E+03    0.16946E-05   -0.10673E-04  9930   0.205E-02    0.297E-02
RMM:  10    -0.158849167598E+03    0.22409E-06   -0.53938E-05  8071   0.154E-02
   8 F= -.15884917E+03 E0= -.15884595E+03  d E =-.306194E-02
quench:  g(F)=  0.000E+00 g(S)=  0.000E+00 dE (1.order)= 0.000E+00
 bond charge predicted
       N       E                     dE             d eps       ncg     rms          rms(c)
DAV:   1    -0.158849058458E+03    0.10936E-03   -0.11990E+00 10064   0.227E+00    0.171E-01
RMM:   2    -0.158857173302E+03   -0.81148E-02   -0.38800E-02 10048   0.422E-01    0.694E-01
RMM:   3    -0.158854141249E+03    0.30321E-02   -0.57819E-03 13170   0.146E-01    0.430E-01
RMM:   4    -0.158852942143E+03    0.11991E-02   -0.13773E-03 10032   0.100E-01    0.277E-01
RMM:   5    -0.158852244401E+03    0.69774E-03   -0.29742E-04 10023   0.513E-02    0.108E-01
RMM:   6    -0.158852133304E+03    0.11110E-03   -0.72229E-05  9126   0.244E-02    0.860E-02
RMM:   7    -0.158852062581E+03    0.70722E-04   -0.95977E-05  9555   0.209E-02    0.701E-02
RMM:   8    -0.158851970387E+03    0.92195E-04   -0.36911E-04 10301   0.358E-02    0.478E-02
RMM:   9    -0.158851965320E+03    0.50670E-05   -0.16628E-04 11213   0.245E-02    0.347E-02
RMM:  10    -0.158851962998E+03    0.23216E-05   -0.56370E-05  8393   0.161E-02
   9 F= -.15885196E+03 E0= -.15884879E+03  d E =-.279540E-02
quench:  g(F)=  0.000E+00 g(S)=  0.000E+00 dE (1.order)= 0.000E+00
 bond charge predicted
       N       E                     dE             d eps       ncg     rms          rms(c)
DAV:   1    -0.158850822893E+03    0.11424E-02   -0.14862E+00 10032   0.252E+00    0.191E-01
RMM:   2    -0.158862585785E+03   -0.11763E-01   -0.48846E-02 10048   0.468E-01    0.868E-01
RMM:   3    -0.158856916136E+03    0.56696E-02   -0.72296E-03 12705   0.163E-01    0.449E-01
RMM:   4    -0.158855624428E+03    0.12917E-02   -0.17419E-03 10028   0.112E-01    0.300E-01
RMM:   5    -0.158854786469E+03    0.83796E-03   -0.36212E-04 10019   0.561E-02    0.121E-01
RMM:   6    -0.158854655393E+03    0.13108E-03   -0.88536E-05  9518   0.267E-02    0.962E-02
RMM:   7    -0.158854567893E+03    0.87500E-04   -0.11065E-04  9877   0.220E-02    0.775E-02
RMM:   8    -0.158854451410E+03    0.11648E-03   -0.39927E-04 10414   0.374E-02    0.534E-02
RMM:   9    -0.158854444141E+03    0.72688E-05   -0.20346E-04 11803   0.268E-02    0.413E-02
RMM:  10    -0.158854439517E+03    0.46238E-05   -0.77196E-05  9567   0.184E-02
  10 F= -.15885444E+03 E0= -.15885132E+03  d E =-.247652E-02
quench:  g(F)=  0.000E+00 g(S)=  0.000E+00 dE (1.order)= 0.000E+00
 bond charge predicted
       N       E                     dE             d eps       ncg     rms          rms(c)
DAV:   1    -0.158852050021E+03    0.23941E-02   -0.17244E+00 10016   0.271E+00    0.202E-01
RMM:   2    -0.158865661540E+03   -0.13612E-01   -0.57080E-02 10054   0.505E-01    0.931E-01
RMM:   3    -0.158858877144E+03    0.67844E-02   -0.82283E-03 12751   0.174E-01    0.455E-01
RMM:   4    -0.158857601689E+03    0.12755E-02   -0.19228E-03 10032   0.117E-01    0.320E-01
RMM:   5    -0.158856654570E+03    0.94712E-03   -0.41461E-04 10023   0.601E-02    0.128E-01
RMM:   6    -0.158856507894E+03    0.14668E-03   -0.99358E-05  9691   0.281E-02    0.102E-01
RMM:   7    -0.158856410342E+03    0.97552E-04   -0.11363E-04  9841   0.219E-02    0.823E-02
RMM:   8    -0.158856279395E+03    0.13095E-03   -0.40671E-04 10453   0.377E-02    0.597E-02
RMM:   9    -0.158856265428E+03    0.13966E-04   -0.23499E-04 12192   0.286E-02    0.465E-02
RMM:  10    -0.158856258565E+03    0.68628E-05   -0.11104E-04 10001   0.213E-02    0.288E-02
RMM:  11    -0.158856253812E+03    0.47538E-05   -0.12421E-05  5416   0.960E-03
  11 F= -.15885625E+03 E0= -.15885318E+03  d E =-.181429E-02
quench:  g(F)=  0.000E+00 g(S)=  0.000E+00 dE (1.order)= 0.000E+00
 bond charge predicted
       N       E                     dE             d eps       ncg     rms          rms(c)
DAV:   1    -0.158853265550E+03    0.29930E-02   -0.16694E+00 10016   0.265E+00    0.196E-01
RMM:   2    -0.158868204097E+03   -0.14939E-01   -0.56103E-02 10058   0.497E-01    0.998E-01
RMM:   3    -0.158859639324E+03    0.85648E-02   -0.80562E-03 12467   0.172E-01    0.405E-01
RMM:   4    -0.158858559669E+03    0.10797E-02   -0.17586E-03 10032   0.112E-01    0.287E-01
RMM:   5    -0.158857742504E+03    0.81717E-03   -0.37273E-04 10020   0.563E-02    0.125E-01
RMM:   6    -0.158857622591E+03    0.11991E-03   -0.82535E-05  9154   0.249E-02    0.101E-01
RMM:   7    -0.158857529699E+03    0.92892E-04   -0.10112E-04  9524   0.211E-02    0.820E-02
RMM:   8    -0.158857391629E+03    0.13807E-03   -0.41087E-04 10347   0.381E-02    0.571E-02
RMM:   9    -0.158857379939E+03    0.11690E-04   -0.28023E-04 12481   0.307E-02    0.475E-02
RMM:  10    -0.158857372853E+03    0.70860E-05   -0.96505E-05  9925   0.207E-02
  12 F= -.15885737E+03 E0= -.15885433E+03  d E =-.111904E-02
quench:  g(F)=  0.000E+00 g(S)=  0.000E+00 dE (1.order)= 0.000E+00
 bond charge predicted
       N       E                     dE             d eps       ncg     rms          rms(c)
DAV:   1    -0.158855022312E+03    0.23576E-02   -0.11466E+00 10048   0.220E+00    0.170E-01
RMM:   2    -0.158867267761E+03   -0.12245E-01   -0.40366E-02 10064   0.417E-01    0.935E-01
RMM:   3    -0.158859199093E+03    0.80687E-02   -0.59019E-03 12107   0.149E-01    0.293E-01
RMM:   4    -0.158858620081E+03    0.57901E-03   -0.11640E-03 10031   0.895E-02    0.232E-01
RMM:   5    -0.158858093653E+03    0.52643E-03   -0.28215E-04 10018   0.485E-02    0.102E-01
RMM:   6    -0.158858013419E+03    0.80233E-04   -0.61755E-05  8352   0.217E-02    0.833E-02
RMM:   7    -0.158857952148E+03    0.61272E-04   -0.59481E-05  7827   0.177E-02    0.667E-02
RMM:   8    -0.158857864586E+03    0.87561E-04   -0.22224E-04 10318   0.288E-02    0.424E-02
RMM:   9    -0.158857859256E+03    0.53306E-05   -0.15557E-04 10917   0.241E-02    0.445E-02
RMM:  10    -0.158857849678E+03    0.95775E-05   -0.10358E-04  9817   0.200E-02    0.218E-02
RMM:  11    -0.158857846568E+03    0.31105E-05   -0.10178E-05  5321   0.901E-03
  13 F= -.15885785E+03 E0= -.15885482E+03  d E =-.473714E-03
quench:  g(F)=  0.000E+00 g(S)=  0.000E+00 dE (1.order)= 0.000E+00
 bond charge predicted
       N       E                     dE             d eps       ncg     rms          rms(c)
DAV:   1    -0.158857912635E+03   -0.62957E-04   -0.68370E-02 10144   0.536E-01    0.450E-02
RMM:   2    -0.158858392355E+03   -0.47972E-03   -0.23563E-03 10050   0.103E-01    0.171E-01
RMM:   3    -0.158858188291E+03    0.20406E-03   -0.35902E-04 12728   0.360E-02    0.941E-02
RMM:   4    -0.158858121899E+03    0.66392E-04   -0.77577E-05  9247   0.239E-02    0.540E-02
RMM:   5    -0.158858086892E+03    0.35007E-04   -0.17497E-05  5577   0.135E-02    0.226E-02
RMM:   6    -0.158858082814E+03    0.40778E-05   -0.58286E-06  5106   0.793E-03
  14 F= -.15885808E+03 E0= -.15885506E+03  d E =-.236247E-03
quench:  g(F)=  0.000E+00 g(S)=  0.000E+00 dE (1.order)= 0.000E+00
 bond charge predicted
       N       E                     dE             d eps       ncg     rms          rms(c)
DAV:   1    -0.158858046112E+03    0.40780E-04   -0.89211E-02 10072   0.616E-01    0.404E-02
RMM:   2    -0.158858497186E+03   -0.45107E-03   -0.27295E-03 10056   0.112E-01    0.148E-01
RMM:   3    -0.158858431948E+03    0.65237E-04   -0.39882E-04 13238   0.372E-02    0.122E-01
RMM:   4    -0.158858308350E+03    0.12360E-03   -0.72799E-05  9149   0.226E-02    0.571E-02
RMM:   5    -0.158858270308E+03    0.38042E-04   -0.13278E-05  5459   0.115E-02    0.299E-02
RMM:   6    -0.158858265840E+03    0.44685E-05   -0.61231E-06  5119   0.792E-03
  15 F= -.15885827E+03 E0= -.15885524E+03  d E =-.183025E-03
quench:  g(F)=  0.000E+00 g(S)=  0.000E+00 dE (1.order)= 0.000E+00
 bond charge predicted
       N       E                     dE             d eps       ncg     rms          rms(c)
DAV:   1    -0.158858228251E+03    0.42057E-04   -0.74262E-02 10080   0.566E-01    0.364E-02
RMM:   2    -0.158858493546E+03   -0.26529E-03   -0.21646E-03 10061   0.990E-02    0.901E-02
RMM:   3    -0.158858494887E+03   -0.13417E-05   -0.31867E-04 12770   0.348E-02    0.876E-02
RMM:   4    -0.158858476851E+03    0.18036E-04   -0.38141E-05  6925   0.159E-02    0.787E-02
RMM:   5    -0.158858414656E+03    0.62195E-04   -0.15789E-05  5519   0.138E-02    0.284E-02
RMM:   6    -0.158858409129E+03    0.55265E-05   -0.48451E-06  5212   0.736E-03
  16 F= -.15885841E+03 E0= -.15885539E+03  d E =-.143290E-03
quench:  g(F)=  0.000E+00 g(S)=  0.000E+00 dE (1.order)= 0.000E+00
 bond charge predicted
       N       E                     dE             d eps       ncg     rms          rms(c)
DAV:   1    -0.158858365013E+03    0.49643E-04   -0.73870E-02 10064   0.561E-01    0.349E-02
RMM:   2    -0.158858820330E+03   -0.45532E-03   -0.22020E-03 10059   0.995E-02    0.158E-01
RMM:   3    -0.158858669946E+03    0.15038E-03   -0.31121E-04 12742   0.327E-02    0.106E-01
RMM:   4    -0.158858560534E+03    0.10941E-03   -0.58592E-05  8589   0.210E-02    0.409E-02
RMM:   5    -0.158858542798E+03    0.17737E-04   -0.83734E-06  5275   0.942E-03    0.289E-02
RMM:   6    -0.158858539417E+03    0.33805E-05   -0.31566E-06  5109   0.610E-03
  17 F= -.15885854E+03 E0= -.15885553E+03  d E =-.130288E-03
quench:  g(F)=  0.000E+00 g(S)=  0.000E+00 dE (1.order)= 0.000E+00
 bond charge predicted
       N       E                     dE             d eps       ncg     rms          rms(c)
DAV:   1    -0.158858493176E+03    0.49622E-04   -0.68308E-02 10064   0.541E-01    0.361E-02
RMM:   2    -0.158858898401E+03   -0.40523E-03   -0.20117E-03 10055   0.972E-02    0.160E-01
RMM:   3    -0.158858805721E+03    0.92680E-04   -0.29589E-04 11798   0.336E-02    0.117E-01
RMM:   4    -0.158858678775E+03    0.12695E-03   -0.54110E-05  8188   0.193E-02    0.467E-02
RMM:   5    -0.158858654079E+03    0.24696E-04   -0.92190E-06  5409   0.100E-02    0.297E-02
RMM:   6    -0.158858650346E+03    0.37331E-05   -0.38785E-06  5099   0.702E-03
  18 F= -.15885865E+03 E0= -.15885565E+03  d E =-.110928E-03
quench:  g(F)=  0.000E+00 g(S)=  0.000E+00 dE (1.order)= 0.000E+00
 bond charge predicted
       N       E                     dE             d eps       ncg     rms          rms(c)
DAV:   1    -0.158858601015E+03    0.53063E-04   -0.59585E-02 10096   0.507E-01    0.336E-02
RMM:   2    -0.158858897567E+03   -0.29655E-03   -0.17397E-03 10055   0.888E-02    0.119E-01
RMM:   3    -0.158858879017E+03    0.18550E-04   -0.25056E-04 12387   0.301E-02    0.113E-01
RMM:   4    -0.158858762601E+03    0.11642E-03   -0.51055E-05  8091   0.193E-02    0.435E-02
RMM:   5    -0.158858742376E+03    0.20226E-04   -0.10073E-05  5325   0.109E-02    0.269E-02
RMM:   6    -0.158858738809E+03    0.35671E-05   -0.31033E-06  5103   0.633E-03
  19 F= -.15885874E+03 E0= -.15885574E+03  d E =-.884630E-04
quench:  g(F)=  0.000E+00 g(S)=  0.000E+00 dE (1.order)= 0.000E+00
 reached required accuracy - stopping structural energy minimisation
 writing wavefunctions
