 running on   20 total cores
 distrk:  each k-point on   20 cores,    1 groups
 distr:  one band on    1 cores,   20 groups
 using from now: INCAR     
 vasp.5.4.1 05Feb16 (build Nov 22 2018 20:17:51) complex                        
  
 POSCAR found type information on POSCAR  Si
 POSCAR found :  1 types and      63 ions
 scaLAPACK will be used

 ----------------------------------------------------------------------------- 
|                                                                             |
|           W    W    AA    RRRRR   N    N  II  N    N   GGGG   !!!           |
|           W    W   A  A   R    R  NN   N  II  NN   N  G    G  !!!           |
|           W    W  A    A  R    R  N N  N  II  N N  N  G       !!!           |
|           W WW W  AAAAAA  RRRRR   N  N N  II  N  N N  G  GGG   !            |
|           WW  WW  A    A  R   R   N   NN  II  N   NN  G    G                |
|           W    W  A    A  R    R  N    N  II  N    N   GGGG   !!!           |
|                                                                             |
|      For optimal performance we recommend to set                            |
|        NCORE= 4 - approx SQRT( number of cores)                             |
|      NCORE specifies how many cores store one orbital (NPAR=cpu/NCORE).     |
|      This setting can  greatly improve the performance of VASP for DFT.     |
|      The default, NPAR=number of cores might be grossly inefficient         |
|      on modern multi-core architectures or massively parallel machines.     |
|      Do your own testing !!!!                                               |
|      Unfortunately you need to use the default for GW and RPA calculations. |
|      (for HF NCORE is supported but not extensively tested yet)             |
|                                                                             |
 ----------------------------------------------------------------------------- 


 ----------------------------------------------------------------------------- 
|                                                                             |
|  ADVICE TO THIS USER RUNNING 'VASP/VAMP'   (HEAR YOUR MASTER'S VOICE ...):  |
|                                                                             |
|      You have a (more or less) 'large supercell' and for larger cells       |
|      it might be more efficient to use real space projection operators      |
|      So try LREAL= Auto  in the INCAR   file.                               |
|      Mind: If you want to do a very accurate calculations keep the          |
|      reciprocal projection scheme          (i.e. LREAL=.FALSE.)             |
|                                                                             |
 ----------------------------------------------------------------------------- 

 LDA part: xc-table for Ceperly-Alder, standard interpolation
 POSCAR found type information on POSCAR  Si
 POSCAR found :  1 types and      63 ions
 POSCAR, INCAR and KPOINTS ok, starting setup
 WARNING: small aliasing (wrap around) errors must be expected
 FFT: planning ...
 WAVECAR not read
 entering main loop
       N       E                     dE             d eps       ncg     rms          rms(c)
DAV:   1     0.659003491108E+03    0.65900E+03   -0.94073E+04  3200   0.126E+03
DAV:   2    -0.277299016070E+03   -0.93630E+03   -0.89964E+03  3800   0.180E+02
DAV:   3    -0.341726571337E+03   -0.64428E+02   -0.63559E+02  3820   0.429E+01
DAV:   4    -0.343455193107E+03   -0.17286E+01   -0.17150E+01  3940   0.861E+00
DAV:   5    -0.343509671195E+03   -0.54478E-01   -0.54387E-01  3880   0.146E+00    0.164E+01
DAV:   6    -0.339948652857E+03    0.35610E+01   -0.27376E+00  3780   0.255E+00    0.974E+00
DAV:   7    -0.338400226973E+03    0.15484E+01   -0.42706E+00  3600   0.332E+00    0.103E+00
DAV:   8    -0.338418956320E+03   -0.18729E-01   -0.28475E-01  3640   0.999E-01    0.389E-01
DAV:   9    -0.338427530668E+03   -0.85743E-02   -0.25155E-02  3880   0.343E-01    0.146E-01
DAV:  10    -0.338428524952E+03   -0.99428E-03   -0.39460E-03  3780   0.116E-01    0.429E-02
DAV:  11    -0.338428698547E+03   -0.17359E-03   -0.36577E-04  4220   0.432E-02    0.182E-02
DAV:  12    -0.338428746454E+03   -0.47907E-04   -0.16551E-04  3920   0.243E-02    0.721E-03
DAV:  13    -0.338428747659E+03   -0.12046E-05   -0.17029E-05  2680   0.795E-03
   1 F= -.33842875E+03 E0= -.33842814E+03  d E =-.338429E+03
 curvature:   0.00 expect dE= 0.000E+00 dE for cont linesearch  0.000E+00
 trial: gam= 0.00000 g(F)=  0.941E-02 g(S)=  0.427E-02 ort = 0.000E+00 (trialstep = 0.100E+01)
 search vector abs. value=  0.137E-01
 bond charge predicted
       N       E                     dE             d eps       ncg     rms          rms(c)
DAV:   1    -0.338441380773E+03   -0.12634E-01   -0.36213E-02  3600   0.348E-01    0.786E-02
DAV:   2    -0.338441360811E+03    0.19962E-04   -0.22870E-03  3920   0.955E-02    0.502E-02
DAV:   3    -0.338441242082E+03    0.11873E-03   -0.30511E-04  3700   0.325E-02    0.114E-02
DAV:   4    -0.338441243953E+03   -0.18716E-05   -0.43963E-05  3420   0.129E-02
   2 F= -.33844124E+03 E0= -.33844064E+03  d E =-.124963E-01
 ZBRENT: can't locate minimum, use default step
 trial-energy change:   -0.012496  1 .order   -0.012469   -0.013679   -0.011258
 step:   4.0000(harm=  5.6488)  dis= 0.00651  next Energy=  -338.467384 (dE=-0.386E-01)
 bond charge predicted
       N       E                     dE             d eps       ncg     rms          rms(c)
DAV:   1    -0.338465262457E+03   -0.24020E-01   -0.32378E-01  3560   0.104E+00    0.236E-01
DAV:   2    -0.338464986270E+03    0.27619E-03   -0.20509E-02  3920   0.286E-01    0.151E-01
DAV:   3    -0.338463819766E+03    0.11665E-02   -0.27521E-03  3700   0.975E-02    0.344E-02
DAV:   4    -0.338463802023E+03    0.17743E-04   -0.40280E-04  3700   0.389E-02    0.180E-02
DAV:   5    -0.338463809846E+03   -0.78226E-05   -0.74208E-05  3760   0.141E-02
   3 F= -.33846381E+03 E0= -.33846322E+03  d E =-.350622E-01
 curvature:  -2.47 expect dE=-0.100E-01 dE for cont linesearch -0.252E-02
 ZBRENT: extrapolating
 opt :   5.4890  next Energy=  -338.466590 (dE=-0.378E-01)
 bond charge predicted
       N       E                     dE             d eps       ncg     rms          rms(c)
DAV:   1    -0.338466983237E+03   -0.31812E-02   -0.79714E-02  3600   0.517E-01    0.118E-01
DAV:   2    -0.338466921502E+03    0.61735E-04   -0.50239E-03  3920   0.142E-01    0.754E-02
DAV:   3    -0.338466646492E+03    0.27501E-03   -0.66965E-04  3700   0.481E-02    0.171E-02
DAV:   4    -0.338466647080E+03   -0.58794E-06   -0.95951E-05  3700   0.190E-02
   4 F= -.33846665E+03 E0= -.33846606E+03  d E =-.378994E-01
 curvature:  -2.73 expect dE=-0.155E-01 dE for cont linesearch -0.449E-06
 trial: gam= 0.41070 g(F)=  0.374E-02 g(S)=  0.193E-02 ort = 0.475E-04 (trialstep = 0.190E+01)
 search vector abs. value=  0.801E-02
 bond charge predicted
       N       E                     dE             d eps       ncg     rms          rms(c)
DAV:   1    -0.338476535079E+03   -0.98886E-02   -0.60079E-02  3380   0.437E-01    0.611E-02
DAV:   2    -0.338476814714E+03   -0.27963E-03   -0.35531E-03  3820   0.119E-01    0.426E-02
DAV:   3    -0.338476764225E+03    0.50489E-04   -0.12926E-04  3960   0.266E-02    0.208E-02
DAV:   4    -0.338476753289E+03    0.10937E-04   -0.62266E-05  3780   0.140E-02    0.578E-03
DAV:   5    -0.338476748775E+03    0.45137E-05   -0.10321E-05  2420   0.672E-03
   5 F= -.33847675E+03 E0= -.33847615E+03  d E =-.101017E-01
 ZBRENT: can't locate minimum, use default step
 trial-energy change:   -0.010102  1 .order   -0.010079   -0.010789   -0.009368
 step:   7.5912(harm= 14.4077)  dis= 0.01342  next Energy=  -338.507601 (dE=-0.410E-01)
 bond charge predicted
       N       E                     dE             d eps       ncg     rms          rms(c)
DAV:   1    -0.338496394762E+03   -0.19641E-01   -0.53415E-01  3340   0.131E+00    0.181E-01
DAV:   2    -0.338498874741E+03   -0.24800E-02   -0.31111E-02  3820   0.352E-01    0.126E-01
DAV:   3    -0.338498460583E+03    0.41416E-03   -0.11052E-03  3960   0.780E-02    0.628E-02
DAV:   4    -0.338498393333E+03    0.67250E-04   -0.55701E-04  3760   0.420E-02    0.172E-02
DAV:   5    -0.338498372273E+03    0.21060E-04   -0.10789E-04  3820   0.204E-02    0.615E-03
DAV:   6    -0.338498370355E+03    0.19179E-05   -0.12309E-05  2280   0.704E-03
   6 F= -.33849837E+03 E0= -.33849774E+03  d E =-.317233E-01
 curvature:  -7.14 expect dE=-0.269E-01 dE for cont linesearch -0.633E-02
 ZBRENT: increasing intervall
 opt :  18.9781  next Energy=  -338.502865 (dE=-0.362E-01)
 bond charge predicted
       N       E                     dE             d eps       ncg     rms          rms(c)
DAV:   1    -0.338495081390E+03    0.32909E-02   -0.21246E+00  3300   0.261E+00    0.360E-01
DAV:   2    -0.338505186141E+03   -0.10105E-01   -0.12514E-01  3800   0.702E-01    0.253E-01
DAV:   3    -0.338503591087E+03    0.15951E-02   -0.43223E-03  4000   0.155E-01    0.128E-01
DAV:   4    -0.338503349218E+03    0.24187E-03   -0.23088E-03  3760   0.855E-02    0.342E-02
DAV:   5    -0.338503284471E+03    0.64747E-04   -0.45792E-04  3840   0.421E-02    0.125E-02
DAV:   6    -0.338503284015E+03    0.45653E-06   -0.55083E-05  3740   0.142E-02
   7 F= -.33850328E+03 E0= -.33850261E+03  d E =-.366369E-01
 curvature:  -5.07 expect dE=-0.832E-01 dE for cont linesearch -0.203E-02
 ZBRENT: bracketing found
 ZBRENT: interpolating
 opt :  14.4033  next Energy=  -338.507379 (dE=-0.407E-01)
 bond charge predicted
       N       E                     dE             d eps       ncg     rms          rms(c)
DAV:   1    -0.338506031222E+03   -0.27468E-02   -0.34163E-01  3320   0.105E+00    0.145E-01
DAV:   2    -0.338507631721E+03   -0.16005E-02   -0.19827E-02  3800   0.282E-01    0.101E-01
DAV:   3    -0.338507393686E+03    0.23804E-03   -0.72854E-04  4000   0.625E-02    0.489E-02
DAV:   4    -0.338507386105E+03    0.75806E-05   -0.33707E-04  3720   0.324E-02    0.137E-02
DAV:   5    -0.338507385913E+03    0.19257E-06   -0.60081E-05  3400   0.154E-02
   8 F= -.33850739E+03 E0= -.33850673E+03  d E =-.407388E-01
 curvature: -10.24 expect dE=-0.933E-01 dE for cont linesearch -0.339E-07
 trial: gam= 1.63160 g(F)=  0.583E-02 g(S)=  0.328E-02 ort = 0.515E-05 (trialstep = 0.116E+01)
 search vector abs. value=  0.305E-01
 bond charge predicted
       N       E                     dE             d eps       ncg     rms          rms(c)
DAV:   1    -0.338517182234E+03   -0.97961E-02   -0.81457E-02  3260   0.490E-01    0.689E-02
DAV:   2    -0.338517496397E+03   -0.31416E-03   -0.42122E-03  3800   0.126E-01    0.458E-02
DAV:   3    -0.338517450132E+03    0.46264E-04   -0.12683E-04  4000   0.264E-02    0.239E-02
DAV:   4    -0.338517446391E+03    0.37415E-05   -0.81202E-05  3880   0.162E-02
   9 F= -.33851745E+03 E0= -.33851676E+03  d E =-.100605E-01
 ZBRENT: can't locate minimum, use default step
 trial-energy change:   -0.010060  1 .order   -0.010045   -0.010554   -0.009536
 step:   4.6284(harm= 11.9872)  dis= 0.01934  next Energy=  -338.562057 (dE=-0.547E-01)
 bond charge predicted
       N       E                     dE             d eps       ncg     rms          rms(c)
DAV:   1    -0.338539483302E+03   -0.22033E-01   -0.73686E-01  3240   0.148E+00    0.211E-01
DAV:   2    -0.338542350913E+03   -0.28676E-02   -0.38579E-02  3800   0.382E-01    0.139E-01
DAV:   3    -0.338541912198E+03    0.43871E-03   -0.11749E-03  4000   0.805E-02    0.727E-02
srun: got SIGCONT
srun: Job step aborted: Waiting up to 32 seconds for job step to finish.
slurmstepd: error: *** JOB 3889 ON mngnode CANCELLED AT 2018-11-25T20:18:11 ***
srun: forcing job termination
slurmstepd: error: *** STEP 3889.0 ON mngnode CANCELLED AT 2018-11-25T20:18:11 ***
forrtl: error (78): process killed (SIGTERM)
Image              PC                Routine            Line        Source             
vasp_std           000000000132948E  Unknown               Unknown  Unknown
libpthread-2.17.s  00002B21158FC6D0  Unknown               Unknown  Unknown
vasp_std           00000000005C1F22  Unknown               Unknown  Unknown
vasp_std           000000000060D8C2  Unknown               Unknown  Unknown
vasp_std           0000000000D45A65  Unknown               Unknown  Unknown
vasp_std           0000000000D687EE  Unknown               Unknown  Unknown
vasp_std           00000000012D5F1E  Unknown               Unknown  Unknown
vasp_std           000000000040675E  Unknown               Unknown  Unknown
libc-2.17.so       00002B2117271445  __libc_start_main     Unknown  Unknown
vasp_std           0000000000406669  Unknown               Unknown  Unknown
forrtl: error (78): process killed (SIGTERM)
Image              PC                Routine            Line        Source             
vasp_std           000000000132948E  Unknown               Unknown  Unknown
libpthread-2.17.s  00002B3EC58346D0  Unknown               Unknown  Unknown
vasp_std           00000000005C1F4F  Unknown               Unknown  Unknown
vasp_std           000000000060D8C2  Unknown               Unknown  Unknown
vasp_std           0000000000D45A65  Unknown               Unknown  Unknown
vasp_std           0000000000D687EE  Unknown               Unknown  Unknown
vasp_std           00000000012D5F1E  Unknown               Unknown  Unknown
vasp_std           000000000040675E  Unknown               Unknown  Unknown
libc-2.17.so       00002B3EC71A9445  __libc_start_main     Unknown  Unknown
vasp_std           0000000000406669  Unknown               Unknown  Unknown
forrtl: error (78): process killed (SIGTERM)
Image              PC                Routine            Line        Source             
vasp_std           000000000132948E  Unknown               Unknown  Unknown
libpthread-2.17.s  00002B67D107F6D0  Unknown               Unknown  Unknown
vasp_std           00000000005C1F4F  Unknown               Unknown  Unknown
vasp_std           000000000060D8C2  Unknown               Unknown  Unknown
vasp_std           0000000000D45A65  Unknown               Unknown  Unknown
vasp_std           0000000000D687EE  Unknown               Unknown  Unknown
vasp_std           00000000012D5F1E  Unknown               Unknown  Unknown
vasp_std           000000000040675E  Unknown               Unknown  Unknown
libc-2.17.so       00002B67D29F4445  __libc_start_main     Unknown  Unknown
vasp_std           0000000000406669  Unknown               Unknown  Unknown
forrtl: error (78): process killed (SIGTERM)
Image              PC                Routine            Line        Source             
vasp_std           000000000132948E  Unknown               Unknown  Unknown
libpthread-2.17.s  00002B80084D06D0  Unknown               Unknown  Unknown
libmkl_avx512.so   00002B801C47B478  mkl_blas_avx512_d     Unknown  Unknown
libmkl_avx512.so   00002B801C33BC65  mkl_blas_avx512_x     Unknown  Unknown
libmkl_sequential  00002B8002DAF204  mkl_blas_dgemv        Unknown  Unknown
libmkl_intel_lp64  00002B800156C59C  dgemv_                Unknown  Unknown
vasp_std           00000000005C1E9A  Unknown               Unknown  Unknown
vasp_std           000000000060D8C2  Unknown               Unknown  Unknown
vasp_std           0000000000D45A65  Unknown               Unknown  Unknown
vasp_std           0000000000D687EE  Unknown               Unknown  Unknown
vasp_std           00000000012D5F1E  Unknown               Unknown  Unknown
vasp_std           000000000040675E  Unknown               Unknown  Unknown
libc-2.17.so       00002B8009E45445  __libc_start_main     Unknown  Unknown
vasp_std           0000000000406669  Unknown               Unknown  Unknown
forrtl: error (78): process killed (SIGTERM)
Image              PC                Routine            Line        Source             
vasp_std           000000000132948E  Unknown               Unknown  Unknown
libpthread-2.17.s  00002B1A16D5E6D0  Unknown               Unknown  Unknown
libmkl_avx512.so   00002B1A2C47B451  mkl_blas_avx512_d     Unknown  Unknown
libmkl_avx512.so   00002B1A2C33BC65  mkl_blas_avx512_x     Unknown  Unknown
libmkl_sequential  00002B1A1163D204  mkl_blas_dgemv        Unknown  Unknown
libmkl_intel_lp64  00002B1A0FDFA59C  dgemv_                Unknown  Unknown
vasp_std           00000000005C1DBC  Unknown               Unknown  Unknown
vasp_std           000000000060D8C2  Unknown               Unknown  Unknown
vasp_std           0000000000D45A65  Unknown               Unknown  Unknown
vasp_std           0000000000D687EE  Unknown               Unknown  Unknown
vasp_std           00000000012D5F1E  Unknown               Unknown  Unknown
vasp_std           000000000040675E  Unknown               Unknown  Unknown
libc-2.17.so       00002B1A186D3445  __libc_start_main     Unknown  Unknown
vasp_std           0000000000406669  Unknown               Unknown  Unknown
forrtl: error (78): process killed (SIGTERM)
Image              PC                Routine            Line        Source             
vasp_std           000000000132948E  Unknown               Unknown  Unknown
libpthread-2.17.s  00002B4F47D5F6D0  Unknown               Unknown  Unknown
libmkl_avx512.so   00002B4F5C47B42B  mkl_blas_avx512_d     Unknown  Unknown
libmkl_avx512.so   00002B4F5C33BC65  mkl_blas_avx512_x     Unknown  Unknown
libmkl_sequential  00002B4F4263E204  mkl_blas_dgemv        Unknown  Unknown
libmkl_intel_lp64  00002B4F40DFB59C  dgemv_                Unknown  Unknown
vasp_std           00000000005C1DBC  Unknown               Unknown  Unknown
vasp_std           000000000060D8C2  Unknown               Unknown  Unknown
vasp_std           0000000000D45A65  Unknown               Unknown  Unknown
vasp_std           0000000000D687EE  Unknown               Unknown  Unknown
vasp_std           00000000012D5F1E  Unknown               Unknown  Unknown
vasp_std           000000000040675E  Unknown               Unknown  Unknown
libc-2.17.so       00002B4F496D4445  __libc_start_main     Unknown  Unknown
vasp_std           0000000000406669  Unknown               Unknown  Unknown
forrtl: error (78): process killed (SIGTERM)
Image              PC                Routine            Line        Source             
vasp_std           000000000132948E  Unknown               Unknown  Unknown
libpthread-2.17.s  00002AD4B61E96D0  Unknown               Unknown  Unknown
libmkl_avx512.so   00002AD4CC47B459  mkl_blas_avx512_d     Unknown  Unknown
libmkl_avx512.so   00002AD4CC33BC65  mkl_blas_avx512_x     Unknown  Unknown
libmkl_sequential  00002AD4B0AC8204  mkl_blas_dgemv        Unknown  Unknown
libmkl_intel_lp64  00002AD4AF28559C  dgemv_                Unknown  Unknown
vasp_std           00000000005C1E9A  Unknown               Unknown  Unknown
vasp_std           000000000060D8C2  Unknown               Unknown  Unknown
vasp_std           0000000000D45A65  Unknown               Unknown  Unknown
vasp_std           0000000000D687EE  Unknown               Unknown  Unknown
vasp_std           00000000012D5F1E  Unknown               Unknown  Unknown
vasp_std           000000000040675E  Unknown               Unknown  Unknown
libc-2.17.so       00002AD4B7B5E445  __libc_start_main     Unknown  Unknown
vasp_std           0000000000406669  Unknown               Unknown  Unknown
forrtl: error (78): process killed (SIGTERM)
Image              PC                Routine            Line        Source             
vasp_std           000000000132948E  Unknown               Unknown  Unknown
libpthread-2.17.s  00002AB01674F6D0  Unknown               Unknown  Unknown
libmkl_avx512.so   00002AB02C47B4A7  mkl_blas_avx512_d     Unknown  Unknown
libmkl_avx512.so   00002AB02C33BC65  mkl_blas_avx512_x     Unknown  Unknown
libmkl_sequential  00002AB01102E204  mkl_blas_dgemv        Unknown  Unknown
libmkl_intel_lp64  00002AB00F7EB59C  dgemv_                Unknown  Unknown
vasp_std           00000000005C1E9A  Unknown               Unknown  Unknown
vasp_std           000000000060D8C2  Unknown               Unknown  Unknown
vasp_std           0000000000D45A65  Unknown               Unknown  Unknown
vasp_std           0000000000D687EE  Unknown               Unknown  Unknown
vasp_std           00000000012D5F1E  Unknown               Unknown  Unknown
vasp_std           000000000040675E  Unknown               Unknown  Unknown
libc-2.17.so       00002AB0180C4445  __libc_start_main     Unknown  Unknown
vasp_std           0000000000406669  Unknown               Unknown  Unknown
forrtl: error (78): process killed (SIGTERM)
Image              PC                Routine            Line        Source             
vasp_std           000000000132948E  Unknown               Unknown  Unknown
libpthread-2.17.s  00002B9022A2E6D0  Unknown               Unknown  Unknown
libmkl_avx512.so   00002B903847B413  mkl_blas_avx512_d     Unknown  Unknown
libmkl_avx512.so   00002B903833BC65  mkl_blas_avx512_x     Unknown  Unknown
libmkl_sequential  00002B901D30D204  mkl_blas_dgemv        Unknown  Unknown
libmkl_intel_lp64  00002B901BACA59C  dgemv_                Unknown  Unknown
vasp_std           00000000005C1E9A  Unknown               Unknown  Unknown
vasp_std           000000000060D8C2  Unknown               Unknown  Unknown
vasp_std           0000000000D45A65  Unknown               Unknown  Unknown
vasp_std           0000000000D687EE  Unknown               Unknown  Unknown
vasp_std           00000000012D5F1E  Unknown               Unknown  Unknown
vasp_std           000000000040675E  Unknown               Unknown  Unknown
libc-2.17.so       00002B90243A3445  __libc_start_main     Unknown  Unknown
vasp_std           0000000000406669  Unknown               Unknown  Unknown
forrtl: error (78): process killed (SIGTERM)
Image              PC                Routine            Line        Source             
vasp_std           000000000132948E  Unknown               Unknown  Unknown
libpthread-2.17.s  00002AFCAEDF76D0  Unknown               Unknown  Unknown
libmkl_avx512.so   00002AFCC447B470  mkl_blas_avx512_d     Unknown  Unknown
libmkl_avx512.so   00002AFCC433BC65  mkl_blas_avx512_x     Unknown  Unknown
libmkl_sequential  00002AFCA96D6204  mkl_blas_dgemv        Unknown  Unknown
libmkl_intel_lp64  00002AFCA7E9359C  dgemv_                Unknown  Unknown
vasp_std           00000000005C1E9A  Unknown               Unknown  Unknown
vasp_std           000000000060D8C2  Unknown               Unknown  Unknown
vasp_std           0000000000D45A65  Unknown               Unknown  Unknown
vasp_std           0000000000D687EE  Unknown               Unknown  Unknown
vasp_std           00000000012D5F1E  Unknown               Unknown  Unknown
vasp_std           000000000040675E  Unknown               Unknown  Unknown
libc-2.17.so       00002AFCB076C445  __libc_start_main     Unknown  Unknown
vasp_std           0000000000406669  Unknown               Unknown  Unknown
forrtl: error (78): process killed (SIGTERM)
Image              PC                Routine            Line        Source             
vasp_std           000000000132948E  Unknown               Unknown  Unknown
libpthread-2.17.s  00002B9DF88EC6D0  Unknown               Unknown  Unknown
libmkl_avx512.so   00002B9E0C73C42B  mkl_blas_avx512_d     Unknown  Unknown
libmkl_avx512.so   00002B9E0C5FCC65  mkl_blas_avx512_x     Unknown  Unknown
libmkl_sequential  00002B9DF31CB204  mkl_blas_dgemv        Unknown  Unknown
libmkl_intel_lp64  00002B9DF198859C  dgemv_                Unknown  Unknown
vasp_std           00000000005C1E9A  Unknown               Unknown  Unknown
vasp_std           000000000060D8C2  Unknown               Unknown  Unknown
vasp_std           0000000000D45A65  Unknown               Unknown  Unknown
vasp_std           0000000000D687EE  Unknown               Unknown  Unknown
vasp_std           00000000012D5F1E  Unknown               Unknown  Unknown
vasp_std           000000000040675E  Unknown               Unknown  Unknown
libc-2.17.so       00002B9DFA261445  __libc_start_main     Unknown  Unknown
vasp_std           0000000000406669  Unknown               Unknown  Unknown
forrtl: error (78): process killed (SIGTERM)
Image              PC                Routine            Line        Source             
vasp_std           000000000132948E  Unknown               Unknown  Unknown
libpthread-2.17.s  00002B2DEC0A56D0  Unknown               Unknown  Unknown
libmkl_avx512.so   00002B2E0047B432  mkl_blas_avx512_d     Unknown  Unknown
libmkl_avx512.so   00002B2E0033BC65  mkl_blas_avx512_x     Unknown  Unknown
libmkl_sequential  00002B2DE6984204  mkl_blas_dgemv        Unknown  Unknown
libmkl_intel_lp64  00002B2DE514159C  dgemv_                Unknown  Unknown
vasp_std           00000000005C1DBC  Unknown               Unknown  Unknown
vasp_std           000000000060D8C2  Unknown               Unknown  Unknown
vasp_std           0000000000D45A65  Unknown               Unknown  Unknown
vasp_std           0000000000D687EE  Unknown               Unknown  Unknown
vasp_std           00000000012D5F1E  Unknown               Unknown  Unknown
vasp_std           000000000040675E  Unknown               Unknown  Unknown
libc-2.17.so       00002B2DEDA1A445  __libc_start_main     Unknown  Unknown
vasp_std           0000000000406669  Unknown               Unknown  Unknown
forrtl: error (78): process killed (SIGTERM)
Image              PC                Routine            Line        Source             
vasp_std           000000000132948E  Unknown               Unknown  Unknown
libpthread-2.17.s  00002B7BF73FC6D0  Unknown               Unknown  Unknown
libmkl_avx512.so   00002B7C0C47B404  mkl_blas_avx512_d     Unknown  Unknown
libmkl_avx512.so   00002B7C0C33BC65  mkl_blas_avx512_x     Unknown  Unknown
libmkl_sequential  00002B7BF1CDB204  mkl_blas_dgemv        Unknown  Unknown
libmkl_intel_lp64  00002B7BF049859C  dgemv_                Unknown  Unknown
vasp_std           00000000005C1DBC  Unknown               Unknown  Unknown
vasp_std           000000000060D8C2  Unknown               Unknown  Unknown
vasp_std           0000000000D45A65  Unknown               Unknown  Unknown
vasp_std           0000000000D687EE  Unknown               Unknown  Unknown
vasp_std           00000000012D5F1E  Unknown               Unknown  Unknown
vasp_std           000000000040675E  Unknown               Unknown  Unknown
libc-2.17.so       00002B7BF8D71445  __libc_start_main     Unknown  Unknown
vasp_std           0000000000406669  Unknown               Unknown  Unknown
forrtl: error (78): process killed (SIGTERM)
Image              PC                Routine            Line        Source             
vasp_std           000000000132948E  Unknown               Unknown  Unknown
libpthread-2.17.s  00002B4147FA46D0  Unknown               Unknown  Unknown
libmkl_avx512.so   00002B415D510C6A  mkl_dft_avx512_co     Unknown  Unknown
libmkl_avx512.so   00002B415D26279E  Unknown               Unknown  Unknown
libmkl_avx512.so   00002B415D212329  Unknown               Unknown  Unknown
libmkl_avx512.so   00002B415D212BAC  Unknown               Unknown  Unknown
libmkl_avx512.so   00002B415D213AA7  Unknown               Unknown  Unknown
libmkl_intel_lp64  00002B41414D3C37  DftiComputeForwar     Unknown  Unknown
vasp_std           000000000128F2C8  Unknown               Unknown  Unknown
vasp_std           000000000128E729  Unknown               Unknown  Unknown
vasp_std           0000000001285708  Unknown               Unknown  Unknown
vasp_std           0000000001285D1D  Unknown               Unknown  Unknown
vasp_std           000000000060DA4D  Unknown               Unknown  Unknown
vasp_std           0000000000D45A65  Unknown               Unknown  Unknown
vasp_std           0000000000D687EE  Unknown               Unknown  Unknown
vasp_std           00000000012D5F1E  Unknown               Unknown  Unknown
vasp_std           000000000040675E  Unknown               Unknown  Unknown
libc-2.17.so       00002B4149919445  __libc_start_main     Unknown  Unknown
vasp_std           0000000000406669  Unknown               Unknown  Unknown
forrtl: error (78): process killed (SIGTERM)
Image              PC                Routine            Line        Source             
vasp_std           000000000132948E  Unknown               Unknown  Unknown
libpthread-2.17.s  00002BA8D4D726D0  Unknown               Unknown  Unknown
libmkl_avx512.so   00002BA8E8AC8480  mkl_blas_avx512_d     Unknown  Unknown
libmkl_avx512.so   00002BA8E8988C65  mkl_blas_avx512_x     Unknown  Unknown
libmkl_sequential  00002BA8CF651204  mkl_blas_dgemv        Unknown  Unknown
libmkl_intel_lp64  00002BA8CDE0E59C  dgemv_                Unknown  Unknown
vasp_std           00000000005C1E9A  Unknown               Unknown  Unknown
vasp_std           000000000060D8C2  Unknown               Unknown  Unknown
vasp_std           0000000000D45A65  Unknown               Unknown  Unknown
vasp_std           0000000000D687EE  Unknown               Unknown  Unknown
vasp_std           00000000012D5F1E  Unknown               Unknown  Unknown
vasp_std           000000000040675E  Unknown               Unknown  Unknown
libc-2.17.so       00002BA8D66E7445  __libc_start_main     Unknown  Unknown
vasp_std           0000000000406669  Unknown               Unknown  Unknown
forrtl: error (78): process killed (SIGTERM)
Image              PC                Routine            Line        Source             
vasp_std           000000000132948E  Unknown               Unknown  Unknown
libpthread-2.17.s  00002BA9687076D0  Unknown               Unknown  Unknown
libmpi.so.12       00002BA968DF391E  PMPIDI_CH3I_Progr     Unknown  Unknown
libmpi.so.12.0     00002BA968F59C63  Unknown               Unknown  Unknown
libmpi.so.12.0     00002BA968DBAE7A  Unknown               Unknown  Unknown
libmpi.so.12       00002BA968DBD83F  MPI_Alltoall          Unknown  Unknown
libmpifort.so.12.  00002BA96896B42E  mpi_alltoall__        Unknown  Unknown
vasp_std           000000000040A967  Unknown               Unknown  Unknown
vasp_std           000000000054DA5F  Unknown               Unknown  Unknown
vasp_std           0000000000D4A0ED  Unknown               Unknown  Unknown
vasp_std           0000000000D687EE  Unknown               Unknown  Unknown
vasp_std           00000000012D5F1E  Unknown               Unknown  Unknown
vasp_std           000000000040675E  Unknown               Unknown  Unknown
libc-2.17.so       00002BA96A07C445  __libc_start_main     Unknown  Unknown
vasp_std           0000000000406669  Unknown               Unknown  Unknown
forrtl: error (78): process killed (SIGTERM)
Image              PC                Routine            Line        Source             
vasp_std           000000000132948E  Unknown               Unknown  Unknown
libpthread-2.17.s  00002B25B17B56D0  Unknown               Unknown  Unknown
libmpi.so.12       00002B25B1EA191E  PMPIDI_CH3I_Progr     Unknown  Unknown
libmpi.so.12.0     00002B25B2007C63  Unknown               Unknown  Unknown
libmpi.so.12.0     00002B25B1E68E7A  Unknown               Unknown  Unknown
libmpi.so.12       00002B25B1E6B83F  MPI_Alltoall          Unknown  Unknown
libmpifort.so.12.  00002B25B1A1942E  mpi_alltoall__        Unknown  Unknown
vasp_std           000000000040A967  Unknown               Unknown  Unknown
vasp_std           000000000054DA5F  Unknown               Unknown  Unknown
vasp_std           0000000000D4A0ED  Unknown               Unknown  Unknown
vasp_std           0000000000D687EE  Unknown               Unknown  Unknown
vasp_std           00000000012D5F1E  Unknown               Unknown  Unknown
vasp_std           000000000040675E  Unknown               Unknown  Unknown
libc-2.17.so       00002B25B312A445  __libc_start_main     Unknown  Unknown
vasp_std           0000000000406669  Unknown               Unknown  Unknown
forrtl: error (78): process killed (SIGTERM)
Image              PC                Routine            Line        Source             
vasp_std           000000000132948E  Unknown               Unknown  Unknown
libpthread-2.17.s  00002B0AC97B96D0  Unknown               Unknown  Unknown
libmpi.so.12       00002B0AC9EA591E  PMPIDI_CH3I_Progr     Unknown  Unknown
libmpi.so.12.0     00002B0ACA00BC63  Unknown               Unknown  Unknown
libmpi.so.12.0     00002B0AC9E6CE7A  Unknown               Unknown  Unknown
libmpi.so.12       00002B0AC9E6F83F  MPI_Alltoall          Unknown  Unknown
libmpifort.so.12.  00002B0AC9A1D42E  mpi_alltoall__        Unknown  Unknown
vasp_std           000000000040A967  Unknown               Unknown  Unknown
vasp_std           000000000054DA5F  Unknown               Unknown  Unknown
vasp_std           0000000000D4A0ED  Unknown               Unknown  Unknown
vasp_std           0000000000D687EE  Unknown               Unknown  Unknown
vasp_std           00000000012D5F1E  Unknown               Unknown  Unknown
vasp_std           000000000040675E  Unknown               Unknown  Unknown
libc-2.17.so       00002B0ACB12E445  __libc_start_main     Unknown  Unknown
vasp_std           0000000000406669  Unknown               Unknown  Unknown
