 running on   35 total cores
 distrk:  each k-point on   35 cores,    1 groups
 distr:  one band on    1 cores,   35 groups
 using from now: INCAR     
 vasp.5.4.1 24Jun15 (build Oct 26 2018 17:15:27) complex                        
  
 POSCAR found type information on POSCAR  Pt
 POSCAR found :  1 types and       8 ions
 scaLAPACK will be used

 ----------------------------------------------------------------------------- 
|                                                                             |
|           W    W    AA    RRRRR   N    N  II  N    N   GGGG   !!!           |
|           W    W   A  A   R    R  NN   N  II  NN   N  G    G  !!!           |
|           W    W  A    A  R    R  N N  N  II  N N  N  G       !!!           |
|           W WW W  AAAAAA  RRRRR   N  N N  II  N  N N  G  GGG   !            |
|           WW  WW  A    A  R   R   N   NN  II  N   NN  G    G                |
|           W    W  A    A  R    R  N    N  II  N    N   GGGG   !!!           |
|                                                                             |
|      For optimal performance we recommend to set                            |
|        NCORE= 4 - approx SQRT( number of cores)                             |
|      NCORE specifies how many cores store one orbital (NPAR=cpu/NCORE).     |
|      This setting can  greatly improve the performance of VASP for DFT.     |
|      The default, NPAR=number of cores might be grossly inefficient         |
|      on modern multi-core architectures or massively parallel machines.     |
|      Do your own testing !!!!                                               |
|      Unfortunately you need to use the default for GW and RPA calculations. |
|      (for HF NCORE is supported but not extensively tested yet)             |
|                                                                             |
 ----------------------------------------------------------------------------- 


 ----------------------------------------------------------------------------- 
|                                                                             |
|  ADVICE TO THIS USER RUNNING 'VASP/VAMP'   (HEAR YOUR MASTER'S VOICE ...):  |
|                                                                             |
|      You have a (more or less) 'small supercell' and for smaller cells      |
|      it is recommended  to use the reciprocal-space projection scheme!      |
|      The real space optimization is not  efficient for small cells and it   |
|      is also less accurate ...                                              |
|      Therefore set LREAL=.FALSE. in the  INCAR file                         |
|                                                                             |
 ----------------------------------------------------------------------------- 

 LDA part: xc-table for Ceperly-Alder, standard interpolation
 POSCAR, INCAR and KPOINTS ok, starting setup
 WARNING: small aliasing (wrap around) errors must be expected
 FFT: planning ...
 WAVECAR not read
 entering main loop
       N       E                     dE             d eps       ncg     rms          rms(c)
DAV:   1     0.706549202956E+03    0.70655E+03   -0.33901E+04  8960   0.989E+02
DAV:   2    -0.190462777610E+02   -0.72560E+03   -0.61318E+03  8960   0.303E+02
DAV:   3    -0.481412360736E+02   -0.29095E+02   -0.28508E+02 13405   0.638E+01
DAV:   4    -0.484533612468E+02   -0.31213E+00   -0.31205E+00  9415   0.750E+00
DAV:   5    -0.484628774486E+02   -0.95162E-02   -0.95159E-02 13545   0.118E+00    0.106E+01
DAV:   6    -0.513934028231E+02   -0.29305E+01   -0.36242E+01 14665   0.309E+01    0.156E+01
DAV:   7    -0.491308781900E+02    0.22625E+01   -0.83348E+01 15330   0.336E+01    0.978E+00
DAV:   8    -0.578677698056E+02   -0.87369E+01   -0.10382E+02 16520   0.495E+01    0.168E+01
DAV:   9    -0.468129975631E+02    0.11055E+02   -0.44233E+01 15820   0.289E+01    0.866E+00
DAV:  10    -0.459856512519E+02    0.82735E+00   -0.22563E+00 14245   0.718E+00    0.476E+00
DAV:  11    -0.457250344489E+02    0.26062E+00   -0.38242E-01 13965   0.356E+00    0.298E+00
DAV:  12    -0.456630273534E+02    0.62007E-01   -0.41155E-01 15225   0.310E+00    0.219E+00
DAV:  13    -0.455897002474E+02    0.73327E-01   -0.20388E-01 13895   0.268E+00    0.117E+00
DAV:  14    -0.455741279580E+02    0.15572E-01   -0.84528E-02 13860   0.162E+00    0.622E-01
DAV:  15    -0.455842157992E+02   -0.10088E-01   -0.19036E-01 14945   0.151E+00    0.114E+00
DAV:  16    -0.455737143374E+02    0.10501E-01   -0.21577E-02 13965   0.808E-01    0.747E-01
DAV:  17    -0.455678305850E+02    0.58838E-02   -0.87213E-02 15330   0.978E-01    0.359E-01
DAV:  18    -0.455662605060E+02    0.15701E-02   -0.89281E-03 14315   0.343E-01    0.764E-02
DAV:  19    -0.455660576240E+02    0.20288E-03   -0.42590E-04 13895   0.125E-01    0.541E-02
DAV:  20    -0.455660121482E+02    0.45476E-04   -0.10553E-03 13685   0.122E-01    0.119E-01
DAV:  21    -0.455657523585E+02    0.25979E-03   -0.13112E-03 11515   0.117E-01    0.137E-02
DAV:  22    -0.455658660002E+02   -0.11364E-03   -0.12625E-03  9905   0.947E-02    0.111E-01
DAV:  23    -0.455657604833E+02    0.10552E-03   -0.16005E-03 10010   0.130E-01    0.255E-02
DAV:  24    -0.455658118962E+02   -0.51413E-04   -0.30880E-05  9730   0.174E-02    0.353E-02
DAV:  25    -0.455658634917E+02   -0.51596E-04   -0.44663E-05  8995   0.267E-02    0.140E-02
DAV:  26    -0.455659058761E+02   -0.42384E-04   -0.31735E-05  9730   0.136E-02    0.295E-03
DAV:  27    -0.455659614050E+02   -0.55529E-04   -0.18318E-04  9905   0.400E-02    0.427E-02
DAV:  28    -0.455659497416E+02    0.11663E-04   -0.96183E-05 10430   0.298E-02    0.105E-02
DAV:  29    -0.455659682958E+02   -0.18554E-04   -0.17308E-04 10115   0.365E-02    0.316E-02
DAV:  30    -0.455659632048E+02    0.50910E-05   -0.24882E-05  9590   0.157E-02
   1 F= -.45565963E+02 E0= -.45565501E+02  d E =-.925337E-03
 writing wavefunctions
