 running on   20 total cores
 distrk:  each k-point on   20 cores,    1 groups
 distr:  one band on    1 cores,   20 groups
 using from now: INCAR     
 vasp.5.4.1 05Feb16 (build Nov 22 2018 20:17:51) complex                        
  
 POSCAR found type information on POSCAR  Cu Ag
 POSCAR found :  2 types and      37 ions
 scaLAPACK will be used

 ----------------------------------------------------------------------------- 
|                                                                             |
|           W    W    AA    RRRRR   N    N  II  N    N   GGGG   !!!           |
|           W    W   A  A   R    R  NN   N  II  NN   N  G    G  !!!           |
|           W    W  A    A  R    R  N N  N  II  N N  N  G       !!!           |
|           W WW W  AAAAAA  RRRRR   N  N N  II  N  N N  G  GGG   !            |
|           WW  WW  A    A  R   R   N   NN  II  N   NN  G    G                |
|           W    W  A    A  R    R  N    N  II  N    N   GGGG   !!!           |
|                                                                             |
|      For optimal performance we recommend to set                            |
|        NCORE= 4 - approx SQRT( number of cores)                             |
|      NCORE specifies how many cores store one orbital (NPAR=cpu/NCORE).     |
|      This setting can  greatly improve the performance of VASP for DFT.     |
|      The default, NPAR=number of cores might be grossly inefficient         |
|      on modern multi-core architectures or massively parallel machines.     |
|      Do your own testing !!!!                                               |
|      Unfortunately you need to use the default for GW and RPA calculations. |
|      (for HF NCORE is supported but not extensively tested yet)             |
|                                                                             |
 ----------------------------------------------------------------------------- 

 LDA part: xc-table for Ceperly-Alder, standard interpolation
 POSCAR found type information on POSCAR  Cu Ag
 POSCAR found :  2 types and      37 ions
 POSCAR, INCAR and KPOINTS ok, starting setup
 WARNING: small aliasing (wrap around) errors must be expected
 FFT: planning ...
 WAVECAR not read
 entering main loop
       N       E                     dE             d eps       ncg     rms          rms(c)
DAV:   1     0.301305382871E+04    0.30131E+04   -0.17823E+05  4680   0.169E+03
DAV:   2     0.141796102269E+03   -0.28713E+04   -0.27178E+04  4680   0.380E+02
DAV:   3    -0.147325018726E+03   -0.28912E+03   -0.27565E+03  4940   0.154E+02
DAV:   4    -0.155531334661E+03   -0.82063E+01   -0.81624E+01  5100   0.300E+01
DAV:   5    -0.155585890385E+03   -0.54556E-01   -0.54549E-01  5220   0.198E+00    0.397E+01
DAV:   6    -0.140900539915E+03    0.14685E+02   -0.29384E+02  5220   0.889E+01    0.201E+01
DAV:   7    -0.127979082869E+03    0.12921E+02   -0.58628E+01  5400   0.485E+01    0.304E+00
DAV:   8    -0.128753101535E+03   -0.77402E+00   -0.10151E+01  5580   0.396E+01    0.512E+00
DAV:   9    -0.127952071866E+03    0.80103E+00   -0.48015E+00  6440   0.273E+01    0.254E+00
DAV:  10    -0.127887253781E+03    0.64818E-01   -0.91528E-01  6060   0.778E+00    0.176E+00
DAV:  11    -0.127860355188E+03    0.26899E-01   -0.55719E-01  5080   0.582E+00    0.815E-01
DAV:  12    -0.127856778244E+03    0.35769E-02   -0.86216E-02  5100   0.184E+00    0.568E-01
DAV:  13    -0.127850231057E+03    0.65472E-02   -0.51440E-02  5240   0.225E+00    0.352E-01
DAV:  14    -0.127846771588E+03    0.34595E-02   -0.12684E-02  5100   0.101E+00    0.223E-01
DAV:  15    -0.127843227764E+03    0.35438E-02   -0.74298E-03  5060   0.104E+00    0.142E-01
DAV:  16    -0.127840729412E+03    0.24984E-02   -0.35536E-03  5480   0.416E-01    0.685E-02
DAV:  17    -0.127839863704E+03    0.86571E-03   -0.16258E-03  4920   0.364E-01    0.614E-02
DAV:  18    -0.127840339739E+03   -0.47603E-03   -0.58726E-04  4900   0.212E-01    0.622E-02
DAV:  19    -0.127842099985E+03   -0.17602E-02   -0.82131E-04  4920   0.259E-01    0.328E-02
DAV:  20    -0.127844461649E+03   -0.23617E-02   -0.88857E-04  5040   0.334E-01    0.425E-02
DAV:  21    -0.127845013408E+03   -0.55176E-03   -0.69647E-04  5280   0.296E-01    0.146E-02
DAV:  22    -0.127845218822E+03   -0.20541E-03   -0.17049E-04  4960   0.644E-02    0.112E-02
DAV:  23    -0.127845316696E+03   -0.97874E-04   -0.98791E-05  4860   0.113E-01    0.186E-02
DAV:  24    -0.127845313368E+03    0.33279E-05   -0.93193E-05  3420   0.120E-01
   1 F= -.12784531E+03 E0= -.12780351E+03  d E =-.127845E+03
 curvature:   0.00 expect dE= 0.000E+00 dE for cont linesearch  0.000E+00
 trial: gam= 0.00000 g(F)=  0.150E+00 g(S)=  0.000E+00 ort = 0.000E+00 (trialstep = 0.100E+01)
 search vector abs. value=  0.150E+00
 bond charge predicted
       N       E                     dE             d eps       ncg     rms          rms(c)
DAV:   1    -0.127969989108E+03   -0.12467E+00   -0.97339E+00  4760   0.544E+00    0.180E-01
DAV:   2    -0.127976838422E+03   -0.68493E-02   -0.77028E-02  5640   0.134E+00    0.194E-01
DAV:   3    -0.127976747017E+03    0.91405E-04   -0.75596E-03  5160   0.105E+00    0.103E-01
DAV:   4    -0.127976759217E+03   -0.12200E-04   -0.32786E-03  5300   0.807E-01    0.944E-02
DAV:   5    -0.127976486537E+03    0.27268E-03   -0.16902E-03  5400   0.597E-01    0.599E-02
DAV:   6    -0.127976414992E+03    0.71545E-04   -0.65979E-04  5920   0.194E-01    0.164E-02
DAV:   7    -0.127976418332E+03   -0.33395E-05   -0.14383E-04  4960   0.837E-02    0.132E-02
DAV:   8    -0.127976417870E+03    0.46159E-06   -0.45951E-05  4940   0.543E-02
   2 F= -.12797642E+03 E0= -.12793501E+03  d E =-.131105E+00
 ZBRENT: can't locate minimum, use default step
 trial-energy change:   -0.131105  1 .order   -0.131512   -0.149677   -0.113347
 step:   4.0000(harm=  4.1199)  dis= 0.11422  next Energy=  -128.222915 (dE=-0.378E+00)
 bond charge predicted
       N       E                     dE             d eps       ncg     rms          rms(c)
DAV:   1    -0.128122011342E+03   -0.14559E+00   -0.89251E+01  4680   0.167E+01    0.564E-01
DAV:   2    -0.128188981907E+03   -0.66971E-01   -0.75431E-01  5220   0.449E+00    0.671E-01
DAV:   3    -0.128184856713E+03    0.41252E-02   -0.59183E-02  5080   0.282E+00    0.286E-01
DAV:   4    -0.128184522592E+03    0.33412E-03   -0.12178E-02  5220   0.125E+00    0.254E-01
DAV:   5    -0.128184649932E+03   -0.12734E-03   -0.19358E-02  4960   0.208E+00    0.226E-01
DAV:   6    -0.128182676863E+03    0.19731E-02   -0.75714E-03  6600   0.108E+00    0.379E-02
DAV:   7    -0.128182752776E+03   -0.75913E-04   -0.14749E-03  4880   0.208E-01    0.294E-02
DAV:   8    -0.128182772587E+03   -0.19811E-04   -0.44379E-04  4900   0.150E-01    0.232E-02
DAV:   9    -0.128182773194E+03   -0.60735E-06   -0.12322E-04  4960   0.874E-02    0.793E-03
DAV:  10    -0.128182776154E+03   -0.29600E-05   -0.18508E-05  3800   0.313E-02
   3 F= -.12818278E+03 E0= -.12814268E+03  d E =-.337463E+00
 curvature:  -2.06 expect dE=-0.141E-01 dE for cont linesearch -0.126E-01
 ZBRENT: extrapolating
 opt :   5.0927  next Energy=  -128.199310 (dE=-0.354E+00)
 bond charge predicted
       N       E                     dE             d eps       ncg     rms          rms(c)
DAV:   1    -0.128195988748E+03   -0.13216E-01   -0.11643E+01  4680   0.601E+00    0.193E-01
DAV:   2    -0.128203316831E+03   -0.73281E-02   -0.84573E-02  4800   0.127E+00    0.192E-01
DAV:   3    -0.128203223526E+03    0.93305E-04   -0.71939E-03  4740   0.866E-01    0.964E-02
DAV:   4    -0.128203101017E+03    0.12251E-03   -0.93680E-04  4980   0.342E-01    0.734E-02
DAV:   5    -0.128202993048E+03    0.10797E-03   -0.54160E-04  5420   0.183E-01    0.230E-02
DAV:   6    -0.128202992603E+03    0.44498E-06   -0.12325E-04  4880   0.131E-01    0.120E-02
DAV:   7    -0.128202992959E+03   -0.35571E-06   -0.57613E-05  3640   0.110E-01
   4 F= -.12820299E+03 E0= -.12816335E+03  d E =-.357680E+00
 curvature:  -2.70 expect dE=-0.431E-02 dE for cont linesearch -0.103E-02
 ZBRENT: extrapolating
 opt :   5.4819  next Energy=  -128.204357 (dE=-0.359E+00)
 bond charge predicted
       N       E                     dE             d eps       ncg     rms          rms(c)
DAV:   1    -0.128203487185E+03   -0.49458E-03   -0.14726E+00  4680   0.214E+00    0.701E-02
DAV:   2    -0.128204363929E+03   -0.87674E-03   -0.10314E-02  4880   0.421E-01    0.623E-02
DAV:   3    -0.128204373272E+03   -0.93425E-05   -0.94023E-04  4920   0.309E-01    0.354E-02
DAV:   4    -0.128204360679E+03    0.12593E-04   -0.16298E-04  5180   0.179E-01    0.262E-02
DAV:   5    -0.128204377472E+03   -0.16793E-04   -0.27993E-04  5200   0.251E-01    0.269E-02
DAV:   6    -0.128204341874E+03    0.35598E-04   -0.15011E-04  4540   0.176E-01    0.449E-03
DAV:   7    -0.128204344449E+03   -0.25748E-05   -0.27580E-05  4460   0.223E-02
   5 F= -.12820434E+03 E0= -.12816489E+03  d E =-.359031E+00
 curvature:  -3.58 expect dE=-0.511E-02 dE for cont linesearch -0.460E-05
 ZBRENT: bracketing found
 ZBRENT: interpolating
 opt :   5.4605  next Energy=  -128.204349 (dE=-0.359E+00)
 bond charge predicted
       N       E                     dE             d eps       ncg     rms          rms(c)
DAV:   1    -0.128204346892E+03   -0.50177E-05   -0.44336E-03  4700   0.118E-01    0.400E-03
DAV:   2    -0.128204349758E+03   -0.28656E-05   -0.27438E-05  3900   0.322E-02
   6 F= -.12820435E+03 E0= -.12816489E+03  d E =-.359036E+00
 curvature:  -3.65 expect dE=-0.525E-02 dE for cont linesearch -0.506E-06
 trial: gam= 0.00866 g(F)=  0.144E-02 g(S)=  0.000E+00 ort = 0.144E-03 (trialstep = 0.189E+01)
 search vector abs. value=  0.145E-02
 bond charge predicted
       N       E                     dE             d eps       ncg     rms          rms(c)
DAV:   1    -0.128206801031E+03   -0.24541E-02   -0.30015E-01  4680   0.107E+00    0.315E-02
DAV:   2    -0.128206929545E+03   -0.12851E-03   -0.15428E-03  5000   0.156E-01    0.260E-02
DAV:   3    -0.128206931622E+03   -0.20769E-05   -0.16975E-04  5060   0.142E-01    0.200E-02
DAV:   4    -0.128206928501E+03    0.31205E-05   -0.94479E-05  4540   0.155E-01
   7 F= -.12820693E+03 E0= -.12816748E+03  d E =-.257874E-02
 ZBRENT: can't locate minimum, use default step
 trial-energy change:   -0.002579  1 .order   -0.002568   -0.002729   -0.002407
 step:   7.5684(harm= 16.0394)  dis= 0.01574  next Energy=  -128.215917 (dE=-0.116E-01)
 bond charge predicted
       N       E                     dE             d eps       ncg     rms          rms(c)
DAV:   1    -0.128211766125E+03   -0.48345E-02   -0.27073E+00  4680   0.321E+00    0.939E-02
DAV:   2    -0.128212927164E+03   -0.11610E-02   -0.13840E-02  5000   0.442E-01    0.745E-02
DAV:   3    -0.128212964866E+03   -0.37702E-04   -0.15414E-03  5200   0.467E-01    0.645E-02
DAV:   4    -0.128212895099E+03    0.69768E-04   -0.10240E-03  5380   0.500E-01    0.441E-02
DAV:   5    -0.128212830325E+03    0.64774E-04   -0.45614E-04  6400   0.314E-01    0.247E-02
DAV:   6    -0.128212813988E+03    0.16337E-04   -0.17026E-04  6440   0.160E-01    0.753E-03
DAV:   7    -0.128212815815E+03   -0.18265E-05   -0.45073E-05  4940   0.545E-02
   8 F= -.12821282E+03 E0= -.12817332E+03  d E =-.846606E-02
 curvature:  -5.19 expect dE=-0.247E-02 dE for cont linesearch -0.222E-02
 ZBRENT: increasing intervall
 opt :  18.9210  next Energy=  -128.216297 (dE=-0.119E-01)
 bond charge predicted
       N       E                     dE             d eps       ncg     rms          rms(c)
DAV:   1    -0.128213173980E+03   -0.35999E-03   -0.10831E+01  4680   0.641E+00    0.181E-01
DAV:   2    -0.128217956564E+03   -0.47826E-02   -0.55911E-02  5040   0.973E-01    0.162E-01
DAV:   3    -0.128217931720E+03    0.24843E-04   -0.49389E-03  5180   0.757E-01    0.106E-01
DAV:   4    -0.128217905277E+03    0.26444E-04   -0.25299E-03  5140   0.776E-01    0.852E-02
DAV:   5    -0.128217741002E+03    0.16428E-03   -0.31880E-03  6500   0.828E-01    0.614E-02
DAV:   6    -0.128217560366E+03    0.18064E-03   -0.90944E-04  7600   0.401E-01    0.121E-02
DAV:   7    -0.128217573853E+03   -0.13486E-04   -0.18459E-04  4820   0.640E-02    0.112E-02
DAV:   8    -0.128217574283E+03   -0.43002E-06   -0.33156E-05  4400   0.421E-02
   9 F= -.12821757E+03 E0= -.12817802E+03  d E =-.132245E-01
 curvature:  -8.13 expect dE=-0.268E-02 dE for cont linesearch -0.135E-05
 trial: gam= 0.23209 g(F)=  0.329E-03 g(S)=  0.000E+00 ort = 0.156E-04 (trialstep = 0.530E+01)
 search vector abs. value=  0.415E-03
 bond charge predicted
       N       E                     dE             d eps       ncg     rms          rms(c)
DAV:   1    -0.128218773802E+03   -0.11999E-02   -0.71823E-01  4680   0.157E+00    0.468E-02
DAV:   2    -0.128219124549E+03   -0.35075E-03   -0.41518E-03  4940   0.251E-01    0.391E-02
DAV:   3    -0.128219126719E+03   -0.21708E-05   -0.39389E-04  5080   0.183E-01    0.265E-02
DAV:   4    -0.128219113323E+03    0.13396E-04   -0.45235E-05  5080   0.944E-02    0.166E-02
DAV:   5    -0.128219106969E+03    0.63544E-05   -0.33974E-05  4020   0.740E-02
  10 F= -.12821911E+03 E0= -.12817961E+03  d E =-.153269E-02
 trial-energy change:   -0.001533  1 .order   -0.001450   -0.001765   -0.001136
 step:   9.3101(harm= 14.8641)  dis= 0.01270  next Energy=  -128.219573 (dE=-0.200E-02)
 bond charge predicted
       N       E                     dE             d eps       ncg     rms          rms(c)
DAV:   1    -0.128219642533E+03   -0.52921E-03   -0.41228E-01  4680   0.120E+00    0.360E-02
DAV:   2    -0.128219868612E+03   -0.22608E-03   -0.25326E-03  6040   0.322E-01    0.392E-02
DAV:   3    -0.128219859302E+03    0.93104E-05   -0.62314E-04  4940   0.341E-01    0.259E-02
DAV:   4    -0.128219843080E+03    0.16222E-04   -0.16512E-04  4900   0.168E-01    0.155E-02
DAV:   5    -0.128219840128E+03    0.29519E-05   -0.56902E-05  4960   0.806E-02
  11 F= -.12821984E+03 E0= -.12818040E+03  d E =-.226584E-02
 curvature:  -6.14 expect dE=-0.501E-03 dE for cont linesearch -0.285E-03
 ZBRENT: increasing intervall
 opt :  17.3344  next Energy=  -128.220348 (dE=-0.277E-02)
 bond charge predicted
       N       E                     dE             d eps       ncg     rms          rms(c)
DAV:   1    -0.128219773491E+03    0.69588E-04   -0.16494E+00  4680   0.239E+00    0.698E-02
DAV:   2    -0.128220592316E+03   -0.81882E-03   -0.96163E-03  5040   0.382E-01    0.593E-02
DAV:   3    -0.128220597935E+03   -0.56189E-05   -0.87055E-04  5180   0.281E-01    0.399E-02
DAV:   4    -0.128220571464E+03    0.26471E-04   -0.14167E-04  5320   0.179E-01    0.270E-02
DAV:   5    -0.128220602956E+03   -0.31492E-04   -0.38816E-04  5540   0.298E-01    0.306E-02
DAV:   6    -0.128220544307E+03    0.58649E-04   -0.24541E-04  4880   0.232E-01    0.431E-03
DAV:   7    -0.128220547989E+03   -0.36818E-05   -0.43946E-05  4940   0.259E-02
  12 F= -.12822055E+03 E0= -.12818120E+03  d E =-.297371E-02
 curvature: -10.94 expect dE=-0.989E-03 dE for cont linesearch -0.127E-04
 ZBRENT: bracketing found
 ZBRENT: interpolating
 opt :  16.2380  next Energy=  -128.220560 (dE=-0.299E-02)
 bond charge predicted
       N       E                     dE             d eps       ncg     rms          rms(c)
DAV:   1    -0.128220515745E+03    0.28562E-04   -0.30806E-02  4680   0.326E-01    0.999E-03
DAV:   2    -0.128220529812E+03   -0.14067E-04   -0.16739E-04  4980   0.501E-02    0.879E-03
DAV:   3    -0.128220529867E+03   -0.55399E-07   -0.15654E-05  3640   0.397E-02
  13 F= -.12822053E+03 E0= -.12818116E+03  d E =-.295558E-02
 curvature: -10.36 expect dE=-0.816E-03 dE for cont linesearch -0.199E-04
 ZBRENT: interpolating
 opt :  16.8550  next Energy=  -128.220553 (dE=-0.298E-02)
 bond charge predicted
       N       E                     dE             d eps       ncg     rms          rms(c)
DAV:   1    -0.128220539807E+03   -0.99949E-05   -0.96758E-03  4680   0.187E-01    0.548E-03
DAV:   2    -0.128220547990E+03   -0.81829E-05   -0.76555E-05  4720   0.925E-02
  14 F= -.12822055E+03 E0= -.12818118E+03  d E =-.297371E-02
 curvature:  -2.73 expect dE=-0.236E-03 dE for cont linesearch -0.329E-06
 trial: gam= 0.26929 g(F)=  0.861E-04 g(S)=  0.000E+00 ort = 0.706E-05 (trialstep = 0.761E+01)
 search vector abs. value=  0.120E-03
 bond charge predicted
       N       E                     dE             d eps       ncg     rms          rms(c)
DAV:   1    -0.128221044712E+03   -0.50491E-03   -0.36189E-01  4680   0.123E+00    0.377E-02
DAV:   2    -0.128221125996E+03   -0.81284E-04   -0.12120E-03  5080   0.188E-01    0.351E-02
DAV:   3    -0.128221120326E+03    0.56692E-05   -0.21179E-04  5240   0.158E-01    0.224E-02
DAV:   4    -0.128221101853E+03    0.18474E-04   -0.40850E-05  4960   0.712E-02    0.547E-03
DAV:   5    -0.128221105406E+03   -0.35538E-05   -0.35559E-05  3060   0.842E-02
  15 F= -.12822111E+03 E0= -.12818173E+03  d E =-.557417E-03
 trial-energy change:   -0.000557  1 .order   -0.000523   -0.000670   -0.000375
 step:  17.3118(harm= 17.3118)  dis= 0.00827  next Energy=  -128.221310 (dE=-0.762E-03)
 bond charge predicted
       N       E                     dE             d eps       ncg     rms          rms(c)
DAV:   1    -0.128221417548E+03   -0.31570E-03   -0.58848E-01  4680   0.157E+00    0.470E-02
DAV:   2    -0.128221547749E+03   -0.13020E-03   -0.18795E-03  5060   0.252E-01    0.443E-02
DAV:   3    -0.128221550365E+03   -0.26164E-05   -0.48074E-04  5180   0.263E-01    0.318E-02
DAV:   4    -0.128221547148E+03    0.32174E-05   -0.30305E-04  4940   0.270E-01    0.272E-02
DAV:   5    -0.128221516922E+03    0.30226E-04   -0.19684E-04  4760   0.209E-01    0.612E-03
DAV:   6    -0.128221514867E+03    0.20548E-05   -0.48293E-05  3480   0.672E-02
  16 F= -.12822151E+03 E0= -.12818207E+03  d E =-.966878E-03
 curvature: -11.80 expect dE=-0.433E-03 dE for cont linesearch -0.165E-04
 ZBRENT: extrapolating
 opt :  20.7709  next Energy=  -128.221537 (dE=-0.989E-03)
 bond charge predicted
       N       E                     dE             d eps       ncg     rms          rms(c)
DAV:   1    -0.128221572388E+03   -0.55466E-04   -0.74962E-02  4680   0.561E-01    0.164E-02
DAV:   2    -0.128221591689E+03   -0.19300E-04   -0.26052E-04  5100   0.103E-01    0.166E-02
DAV:   3    -0.128221591849E+03   -0.16072E-06   -0.70078E-05  4980   0.100E-01
  17 F= -.12822159E+03 E0= -.12818212E+03  d E =-.104386E-02
 curvature: -16.01 expect dE=-0.739E-03 dE for cont linesearch -0.683E-05
 trial: gam= 0.38007 g(F)=  0.461E-04 g(S)=  0.000E+00 ort = 0.716E-05 (trialstep = 0.102E+02)
 search vector abs. value=  0.689E-04
 bond charge predicted
       N       E                     dE             d eps       ncg     rms          rms(c)
DAV:   1    -0.128221983717E+03   -0.39203E-03   -0.38278E-01  4680   0.126E+00    0.426E-02
DAV:   2    -0.128222079721E+03   -0.96004E-04   -0.14194E-03  5240   0.252E-01    0.374E-02
DAV:   3    -0.128222091665E+03   -0.11944E-04   -0.56008E-04  5300   0.328E-01    0.320E-02
DAV:   4    -0.128222063368E+03    0.28297E-04   -0.25813E-04  5220   0.238E-01    0.198E-02
DAV:   5    -0.128222050104E+03    0.13264E-04   -0.75132E-05  5120   0.118E-01    0.521E-03
DAV:   6    -0.128222052723E+03   -0.26185E-05   -0.38073E-05  4440   0.395E-02
  18 F= -.12822205E+03 E0= -.12818265E+03  d E =-.460873E-03
 trial-energy change:   -0.000461  1 .order   -0.000372   -0.000500   -0.000243
 step:  12.9189(harm= 19.9410)  dis= 0.00358  next Energy=  -128.222086 (dE=-0.494E-03)
 reached required accuracy - stopping structural energy minimisation
 writing wavefunctions
