 running on   20 total cores
 distrk:  each k-point on   20 cores,    1 groups
 distr:  one band on    1 cores,   20 groups
 using from now: INCAR     
 vasp.5.4.1 05Feb16 (build Sep 02 2018 21:45:25) complex                        
  
 POSCAR found type information on POSCAR  Cu H 
 POSCAR found :  2 types and      17 ions
 scaLAPACK will be used

 ----------------------------------------------------------------------------- 
|                                                                             |
|           W    W    AA    RRRRR   N    N  II  N    N   GGGG   !!!           |
|           W    W   A  A   R    R  NN   N  II  NN   N  G    G  !!!           |
|           W    W  A    A  R    R  N N  N  II  N N  N  G       !!!           |
|           W WW W  AAAAAA  RRRRR   N  N N  II  N  N N  G  GGG   !            |
|           WW  WW  A    A  R   R   N   NN  II  N   NN  G    G                |
|           W    W  A    A  R    R  N    N  II  N    N   GGGG   !!!           |
|                                                                             |
|      For optimal performance we recommend to set                            |
|        NCORE= 4 - approx SQRT( number of cores)                             |
|      NCORE specifies how many cores store one orbital (NPAR=cpu/NCORE).     |
|      This setting can  greatly improve the performance of VASP for DFT.     |
|      The default, NPAR=number of cores might be grossly inefficient         |
|      on modern multi-core architectures or massively parallel machines.     |
|      Do your own testing !!!!                                               |
|      Unfortunately you need to use the default for GW and RPA calculations. |
|      (for HF NCORE is supported but not extensively tested yet)             |
|                                                                             |
 ----------------------------------------------------------------------------- 

 LDA part: xc-table for Ceperly-Alder, standard interpolation
 POSCAR, INCAR and KPOINTS ok, starting setup
 WARNING: small aliasing (wrap around) errors must be expected
 FFT: planning ...
 WAVECAR not read
 entering main loop
       N       E                     dE             d eps       ncg     rms          rms(c)
DAV:   1     0.121422898968E+04    0.12142E+04   -0.77176E+04  3600   0.152E+03
DAV:   2     0.461912446838E+02   -0.11680E+04   -0.11197E+04  3600   0.340E+02
DAV:   3    -0.462682215836E+02   -0.92459E+02   -0.91243E+02  4200   0.129E+02
DAV:   4    -0.478805749042E+02   -0.16124E+01   -0.16110E+01  3960   0.188E+01
DAV:   5    -0.478921291224E+02   -0.11554E-01   -0.11554E-01  4160   0.112E+00    0.253E+01
DAV:   6    -0.419423325125E+02    0.59498E+01   -0.11534E+02  4220   0.848E+01    0.132E+01
DAV:   7    -0.361970949730E+02    0.57452E+01   -0.27767E+01  4340   0.723E+01    0.323E+00
DAV:   8    -0.364772170299E+02   -0.28012E+00   -0.10079E+01  4280   0.441E+01    0.386E+00
DAV:   9    -0.362317070854E+02    0.24551E+00   -0.61164E+00  4420   0.309E+01    0.273E+00
DAV:  10    -0.361413747878E+02    0.90332E-01   -0.11510E+00  4600   0.129E+01    0.175E+00
DAV:  11    -0.361087391254E+02    0.32636E-01   -0.21089E-01  4120   0.500E+00    0.105E+00
DAV:  12    -0.360929660371E+02    0.15773E-01   -0.18648E-01  3960   0.354E+00    0.325E-01
DAV:  13    -0.360949895521E+02   -0.20235E-02   -0.39454E-02  4280   0.221E+00    0.299E-01
DAV:  14    -0.360917259400E+02    0.32636E-02   -0.16163E-02  4180   0.131E+00    0.164E-01
DAV:  15    -0.360896057681E+02    0.21202E-02   -0.71469E-02  6100   0.262E+00    0.114E-01
DAV:  16    -0.360933016345E+02   -0.36959E-02   -0.11152E-02  5980   0.116E+00    0.211E-01
DAV:  17    -0.360871943817E+02    0.61073E-02   -0.38554E-02  5900   0.209E+00    0.859E-02
DAV:  18    -0.360873495150E+02   -0.15513E-03   -0.60831E-03  5540   0.714E-01    0.585E-02
DAV:  19    -0.360874541993E+02   -0.10468E-03   -0.11261E-02  4840   0.122E+00    0.525E-02
DAV:  20    -0.360889424857E+02   -0.14883E-02   -0.15986E-02  5520   0.140E+00    0.686E-02
DAV:  21    -0.360894254178E+02   -0.48293E-03   -0.75036E-04  3820   0.136E-01    0.642E-02
DAV:  22    -0.360891610931E+02    0.26432E-03   -0.28449E-03  5380   0.533E-01    0.231E-02
DAV:  23    -0.360894492218E+02   -0.28813E-03   -0.19080E-04  3800   0.670E-02    0.194E-02
DAV:  24    -0.360894641485E+02   -0.14927E-04   -0.74709E-04  2760   0.276E-01    0.919E-03
DAV:  25    -0.360894647666E+02   -0.61807E-06   -0.47257E-05  3260   0.519E-02
   1 F= -.36089465E+02 E0= -.36089392E+02  d E =-.360895E+02
 curvature:   0.00 expect dE= 0.000E+00 dE for cont linesearch  0.000E+00
 trial: gam= 0.00000 g(F)=  0.285E+03 g(S)=  0.000E+00 ort = 0.000E+00 (trialstep = 0.100E+01)
 search vector abs. value=  0.285E+03
 bond charge predicted
       N       E                     dE             d eps       ncg     rms          rms(c)
DAV:   1    -0.532222641962E+02   -0.17133E+02   -0.37371E+03  3820   0.185E+02    0.550E+00
DAV:   2    -0.571075317249E+02   -0.38853E+01   -0.51789E+01  4180   0.351E+01    0.533E+00
DAV:   3    -0.566191358953E+02    0.48840E+00   -0.59258E+00  4540   0.278E+01    0.237E+00
DAV:   4    -0.567966040647E+02   -0.17747E+00   -0.36554E+00  4480   0.259E+01    0.242E+00
DAV:   5    -0.566844522450E+02    0.11215E+00   -0.17697E+00  4340   0.201E+01    0.113E+00
DAV:   6    -0.567021855619E+02   -0.17733E-01   -0.36866E-01  3980   0.704E+00    0.587E-01
DAV:   7    -0.567047147226E+02   -0.25292E-02   -0.72441E-02  4160   0.420E+00    0.201E-01
DAV:   8    -0.567057724745E+02   -0.10578E-02   -0.16091E-02  3980   0.120E+00    0.113E-01
DAV:   9    -0.567065180281E+02   -0.74555E-03   -0.47776E-03  3700   0.768E-01    0.797E-02
DAV:  10    -0.567065822404E+02   -0.64212E-04   -0.12046E-03  3980   0.574E-01    0.462E-02
DAV:  11    -0.567066357292E+02   -0.53489E-04   -0.26549E-04  3740   0.214E-01    0.232E-02
DAV:  12    -0.567067406984E+02   -0.10497E-03   -0.12643E-04  3840   0.120E-01    0.143E-02
DAV:  13    -0.567068602676E+02   -0.11957E-03   -0.59466E-05  3800   0.791E-02    0.136E-02
DAV:  14    -0.567069157935E+02   -0.55526E-04   -0.17516E-05  2840   0.549E-02    0.762E-03
DAV:  15    -0.567070113742E+02   -0.95581E-04   -0.19489E-05  2900   0.286E-02    0.528E-03
DAV:  16    -0.567070457776E+02   -0.34403E-04   -0.93392E-06  2760   0.282E-02    0.355E-03
DAV:  17    -0.567070518816E+02   -0.61040E-05   -0.77011E-06  2520   0.233E-02
   2 F= -.56707052E+02 E0= -.56706829E+02  d E =-.206176E+02
 trial-energy change:  -20.617587  1 .order -141.504663 -284.725324    1.715998
 step:   0.9940(harm=  0.9940)  dis= 1.16754  next Energy=  -177.599268 (dE=-0.142E+03)
 bond charge predicted
       N       E                     dE             d eps       ncg     rms          rms(c)
DAV:   1    -0.567172259388E+02   -0.10180E-01   -0.27735E-01  3680   0.101E+00    0.347E-02
DAV:   2    -0.567172630103E+02   -0.37071E-04   -0.69988E-04  4720   0.233E-01    0.297E-02
DAV:   3    -0.567172556515E+02    0.73588E-05   -0.29010E-04  4040   0.226E-01    0.171E-02
DAV:   4    -0.567172594518E+02   -0.38004E-05   -0.22498E-04  3340   0.218E-01    0.152E-02
DAV:   5    -0.567172480904E+02    0.11361E-04   -0.76434E-05  3440   0.138E-01    0.223E-03
DAV:   6    -0.567172489638E+02   -0.87342E-06   -0.89711E-06  2480   0.146E-02
   3 F= -.56717249E+02 E0= -.56717020E+02  d E =-.206278E+02
 curvature:  -0.50 expect dE=-0.974E-02 dE for cont linesearch -0.498E-02
 ZBRENT: interpolating
 opt :   0.9881  next Energy=   -56.722201 (dE=-0.206E+02)
 bond charge predicted
       N       E                     dE             d eps       ncg     rms          rms(c)
DAV:   1    -0.567270690198E+02   -0.98209E-02   -0.26559E-01  3600   0.995E-01    0.340E-02
DAV:   2    -0.567271086228E+02   -0.39603E-04   -0.71258E-04  4980   0.249E-01    0.298E-02
DAV:   3    -0.567271004007E+02    0.82221E-05   -0.33416E-04  3980   0.246E-01    0.171E-02
DAV:   4    -0.567271006781E+02   -0.27742E-06   -0.19580E-04  3280   0.207E-01    0.142E-02
DAV:   5    -0.567270926340E+02    0.80441E-05   -0.53934E-05  3420   0.118E-01
   4 F= -.56727093E+02 E0= -.56726858E+02  d E =-.206376E+02
 curvature:  -0.49 expect dE=-0.960E-02 dE for cont linesearch -0.480E-02
 ZBRENT: interpolating
 opt :   0.6165  next Energy=   -57.037937 (dE=-0.209E+02)
 bond charge predicted
       N       E                     dE             d eps       ncg     rms          rms(c)
DAV:   1    -0.555400328395E+02    0.11871E+01   -0.22469E+03  3940   0.109E+02    0.362E+00
DAV:   2    -0.575718680587E+02   -0.20318E+01   -0.27184E+01  4560   0.311E+01    0.409E+00
DAV:   3    -0.571856264367E+02    0.38624E+00   -0.54188E+00  4300   0.323E+01    0.156E+00
DAV:   4    -0.571480312362E+02    0.37595E-01   -0.12450E+00  4360   0.135E+01    0.823E-01
DAV:   5    -0.571484693519E+02   -0.43812E-03   -0.23579E-01  4000   0.566E+00    0.546E-01
DAV:   6    -0.571498533195E+02   -0.13840E-02   -0.61614E-02  4040   0.275E+00    0.328E-01
DAV:   7    -0.571479618444E+02    0.18915E-02   -0.18705E-02  4080   0.253E+00    0.103E-01
DAV:   8    -0.571481143043E+02   -0.15246E-03   -0.64175E-03  5180   0.814E-01    0.729E-02
DAV:   9    -0.571481853797E+02   -0.71075E-04   -0.19458E-03  3840   0.552E-01    0.281E-02
DAV:  10    -0.571482448825E+02   -0.59503E-04   -0.32835E-04  3960   0.214E-01    0.210E-02
DAV:  11    -0.571483046649E+02   -0.59782E-04   -0.10315E-04  3720   0.141E-01    0.150E-02
DAV:  12    -0.571483093646E+02   -0.46997E-05   -0.26956E-05  3580   0.630E-02
   5 F= -.57148309E+02 E0= -.57148126E+02  d E =-.210588E+02
 curvature: -31.99 expect dE=-0.398E+00 dE for cont linesearch -0.983E-01
 ZBRENT: bisectioning
 opt :   0.3083  next Energy=   -57.343664 (dE=-0.213E+02)
 bond charge predicted
       N       E                     dE             d eps       ncg     rms          rms(c)
DAV:   1    -0.564976328799E+02    0.65067E+00   -0.14480E+03  3600   0.107E+02    0.440E+00
DAV:   2    -0.576113288977E+02   -0.11137E+01   -0.16152E+01  4120   0.486E+01    0.436E+00
DAV:   3    -0.572207392113E+02    0.39059E+00   -0.66230E+00  4540   0.313E+01    0.152E+00
DAV:   4    -0.571687037258E+02    0.52035E-01   -0.17664E+00  4400   0.152E+01    0.883E-01
DAV:   5    -0.571734570880E+02   -0.47534E-02   -0.29127E-01  3920   0.691E+00    0.784E-01
DAV:   6    -0.571741947605E+02   -0.73767E-03   -0.79567E-02  4060   0.379E+00    0.518E-01
DAV:   7    -0.571696523254E+02    0.45424E-02   -0.29318E-02  4060   0.329E+00    0.110E-01
DAV:   8    -0.571696725210E+02   -0.20196E-04   -0.71766E-03  5780   0.101E+00    0.756E-02
DAV:   9    -0.571697741088E+02   -0.10159E-03   -0.24060E-03  3900   0.461E-01    0.351E-02
DAV:  10    -0.571697962166E+02   -0.22108E-04   -0.29721E-04  3940   0.201E-01    0.277E-02
DAV:  11    -0.571697969302E+02   -0.71366E-06   -0.60729E-05  4020   0.105E-01
   6 F= -.57169797E+02 E0= -.57169707E+02  d E =-.210803E+02
 curvature: -63.55 expect dE=-0.365E+01 dE for cont linesearch -0.337E+01
 ZBRENT: interpolating
 opt :   0.5567  next Energy=   -57.176299 (dE=-0.211E+02)
 bond charge predicted
       N       E                     dE             d eps       ncg     rms          rms(c)
DAV:   1    -0.568145159446E+02    0.35528E+00   -0.76940E+02  3640   0.838E+01    0.174E+00
DAV:   2    -0.572033658025E+02   -0.38885E+00   -0.43851E+00  4840   0.154E+01    0.138E+00
DAV:   3    -0.572409604920E+02   -0.37595E-01   -0.13502E+00  3940   0.131E+01    0.117E+00
DAV:   4    -0.572177346898E+02    0.23226E-01   -0.69824E-01  4140   0.116E+01    0.844E-01
DAV:   5    -0.572037967216E+02    0.13938E-01   -0.11118E-01  4800   0.604E+00    0.225E-01
DAV:   6    -0.572056370242E+02   -0.18403E-02   -0.32278E-02  4040   0.185E+00    0.942E-02
DAV:   7    -0.572058267943E+02   -0.18977E-03   -0.52936E-03  3980   0.887E-01    0.618E-02
DAV:   8    -0.572058625900E+02   -0.35796E-04   -0.11854E-03  4020   0.357E-01    0.311E-02
DAV:   9    -0.572058648090E+02   -0.22190E-05   -0.21202E-04  4040   0.143E-01    0.147E-02
DAV:  10    -0.572058677173E+02   -0.29083E-05   -0.63701E-05  3900   0.128E-01
   7 F= -.57205868E+02 E0= -.57205604E+02  d E =-.211164E+02
 curvature:  -0.53 expect dE=-0.646E-02 dE for cont linesearch -0.174E-02
 ZBRENT: bisectioning
 opt :   0.4325  next Energy=   -57.330171 (dE=-0.212E+02)
 bond charge predicted
       N       E                     dE             d eps       ncg     rms          rms(c)
DAV:   1    -0.572847342791E+02   -0.78869E-01   -0.13561E+02  3600   0.297E+01    0.139E+00
DAV:   2    -0.573633859912E+02   -0.78652E-01   -0.11942E+00  4540   0.155E+01    0.147E+00
DAV:   3    -0.573250468079E+02    0.38339E-01   -0.80190E-01  4460   0.134E+01    0.602E-01
DAV:   4    -0.573094324054E+02    0.15614E-01   -0.22997E-01  4940   0.613E+00    0.328E-01
DAV:   5    -0.573100851821E+02   -0.65278E-03   -0.27488E-02  4020   0.150E+00    0.236E-01
DAV:   6    -0.573094983998E+02    0.58678E-03   -0.61170E-03  4000   0.119E+00    0.137E-01
DAV:   7    -0.573091950922E+02    0.30331E-03   -0.16827E-03  4080   0.726E-01    0.510E-02
DAV:   8    -0.573091589141E+02    0.36178E-04   -0.51652E-04  4280   0.342E-01    0.153E-02
DAV:   9    -0.573091825294E+02   -0.23615E-04   -0.29481E-04  3940   0.107E-01    0.130E-02
DAV:  10    -0.573091815745E+02    0.95487E-06   -0.16931E-05  2660   0.674E-02
   8 F= -.57309182E+02 E0= -.57309106E+02  d E =-.212197E+02
 curvature: -37.81 expect dE=-0.300E+00 dE for cont linesearch -0.253E-01
 ZBRENT: bisectioning
 opt :   0.3704  next Energy=   -57.328017 (dE=-0.212E+02)
 bond charge predicted
       N       E                     dE             d eps       ncg     rms          rms(c)
DAV:   1    -0.572991167500E+02    0.10066E-01   -0.30844E+01  3600   0.147E+01    0.750E-01
DAV:   2    -0.573127424951E+02   -0.13626E-01   -0.22997E-01  4740   0.759E+00    0.677E-01
DAV:   3    -0.573056375767E+02    0.71049E-02   -0.11438E-01  4180   0.594E+00    0.301E-01
DAV:   4    -0.573035978366E+02    0.20397E-02   -0.56843E-02  5020   0.330E+00    0.233E-01
DAV:   5    -0.573026151893E+02    0.98265E-03   -0.97711E-03  4220   0.152E+00    0.101E-01
DAV:   6    -0.573025815917E+02    0.33598E-04   -0.16634E-03  4200   0.553E-01    0.459E-02
DAV:   7    -0.573025729036E+02    0.86881E-05   -0.52753E-04  4060   0.331E-01    0.168E-02
DAV:   8    -0.573025698562E+02    0.30473E-05   -0.98753E-05  5460   0.110E-01
   9 F= -.57302570E+02 E0= -.57302296E+02  d E =-.212131E+02
 curvature: -28.20 expect dE=-0.239E+00 dE for cont linesearch -0.707E-01
 ZBRENT: interpolating
 opt :   0.4113  next Energy=   -57.313793 (dE=-0.212E+02)
 bond charge predicted
       N       E                     dE             d eps       ncg     rms          rms(c)
DAV:   1    -0.573132461299E+02   -0.10673E-01   -0.13182E+01  3600   0.963E+00    0.418E-01
DAV:   2    -0.573169495752E+02   -0.37034E-02   -0.65263E-02  4940   0.361E+00    0.329E-01
DAV:   3    -0.573159782365E+02    0.97134E-03   -0.26195E-02  4020   0.279E+00    0.193E-01
DAV:   4    -0.573167577590E+02   -0.77952E-03   -0.22695E-02  4480   0.216E+00    0.167E-01
DAV:   5    -0.573154426452E+02    0.13151E-02   -0.89578E-03  4400   0.149E+00    0.411E-02
DAV:   6    -0.573154585204E+02   -0.15875E-04   -0.80649E-04  4320   0.283E-01    0.213E-02
DAV:   7    -0.573154656246E+02   -0.71042E-05   -0.22474E-04  4100   0.195E-01    0.134E-02
DAV:   8    -0.573154646708E+02    0.95390E-06   -0.33471E-05  3760   0.625E-02
  10 F= -.57315465E+02 E0= -.57315340E+02  d E =-.212260E+02
 curvature:  -1.84 expect dE=-0.124E-01 dE for cont linesearch -0.793E-04
 trial: gam= 0.00041 g(F)=  0.674E-02 g(S)=  0.000E+00 ort =-0.111E+00 (trialstep = 0.882E+00)
 search vector abs. value=  0.669E-02
 bond charge predicted
       N       E                     dE             d eps       ncg     rms          rms(c)
DAV:   1    -0.573213489805E+02   -0.58834E-02   -0.18011E-01  3600   0.123E+00    0.290E-02
DAV:   2    -0.573213868413E+02   -0.37861E-04   -0.63229E-04  4160   0.291E-01    0.307E-02
DAV:   3    -0.573213761366E+02    0.10705E-04   -0.16056E-04  3980   0.211E-01    0.145E-02
DAV:   4    -0.573213826503E+02   -0.65137E-05   -0.15430E-04  3540   0.191E-01    0.171E-02
DAV:   5    -0.573213681887E+02    0.14462E-04   -0.10767E-04  3220   0.152E-01    0.328E-03
DAV:   6    -0.573213687935E+02   -0.60481E-06   -0.12553E-05  2440   0.322E-02
  11 F= -.57321369E+02 E0= -.57321237E+02  d E =-.590412E-02
 ZBRENT: can't locate minimum, use default step
 trial-energy change:   -0.005904  1 .order   -0.005854   -0.005904   -0.005805
 step:   3.5291(harm= 53.0548)  dis= 0.00947  next Energy=   -57.492969 (dE=-0.178E+00)
 bond charge predicted
       N       E                     dE             d eps       ncg     rms          rms(c)
DAV:   1    -0.573380288884E+02   -0.16661E-01   -0.16223E+00  3600   0.369E+00    0.868E-02
DAV:   2    -0.573383825366E+02   -0.35365E-03   -0.57626E-03  4100   0.856E-01    0.909E-02
DAV:   3    -0.573382888899E+02    0.93647E-04   -0.14178E-03  4020   0.618E-01    0.427E-02
DAV:   4    -0.573383470232E+02   -0.58133E-04   -0.12426E-03  4360   0.553E-01    0.498E-02
DAV:   5    -0.573382339837E+02    0.11304E-03   -0.10136E-03  5040   0.451E-01    0.106E-02
DAV:   6    -0.573382354765E+02   -0.14927E-05   -0.12017E-04  3900   0.797E-02    0.693E-03
DAV:   7    -0.573382357226E+02   -0.24614E-06   -0.23353E-05  3060   0.550E-02
  12 F= -.57338236E+02 E0= -.57338086E+02  d E =-.227711E-01
 curvature:  -2.62 expect dE=-0.157E-01 dE for cont linesearch -0.156E-01
 ZBRENT: increasing intervall
 opt :   8.8227  next Energy=   -57.370107 (dE=-0.546E-01)
 bond charge predicted
       N       E                     dE             d eps       ncg     rms          rms(c)
DAV:   1    -0.573692558179E+02   -0.31020E-01   -0.64995E+00  3600   0.739E+00    0.177E-01
DAV:   2    -0.573707218581E+02   -0.14660E-02   -0.24012E-02  4080   0.173E+00    0.184E-01
DAV:   3    -0.573703454492E+02    0.37641E-03   -0.66039E-03  4020   0.132E+00    0.920E-02
DAV:   4    -0.573705329483E+02   -0.18750E-03   -0.53865E-03  4300   0.114E+00    0.981E-02
DAV:   5    -0.573700869744E+02    0.44597E-03   -0.36271E-03  5360   0.801E-01    0.242E-02
DAV:   6    -0.573700954362E+02   -0.84618E-05   -0.50218E-04  3940   0.154E-01    0.162E-02
DAV:   7    -0.573700941771E+02    0.12591E-05   -0.10862E-04  3920   0.134E-01    0.960E-03
DAV:   8    -0.573700933360E+02    0.84108E-06   -0.13887E-05  2560   0.528E-02
  13 F= -.57370093E+02 E0= -.57369907E+02  d E =-.546287E-01
 curvature:  -5.37 expect dE=-0.276E-01 dE for cont linesearch -0.266E-01
 ZBRENT: increasing intervall
 opt :  19.4099  next Energy=   -57.425355 (dE=-0.110E+00)
 bond charge predicted
       N       E                     dE             d eps       ncg     rms          rms(c)
DAV:   1    -0.574212582833E+02   -0.51164E-01   -0.26164E+01  3600   0.149E+01    0.363E-01
DAV:   2    -0.574275708888E+02   -0.63126E-02   -0.10197E-01  4080   0.345E+00    0.371E-01
DAV:   3    -0.574260469482E+02    0.15239E-02   -0.26777E-02  4060   0.263E+00    0.189E-01
DAV:   4    -0.574267141025E+02   -0.66715E-03   -0.19887E-02  4360   0.223E+00    0.191E-01
DAV:   5    -0.574250629961E+02    0.16511E-02   -0.14828E-02  5340   0.156E+00    0.581E-02
DAV:   6    -0.574250354380E+02    0.27558E-04   -0.24579E-03  4000   0.364E-01    0.419E-02
DAV:   7    -0.574250205255E+02    0.14912E-04   -0.64857E-04  3920   0.337E-01    0.187E-02
DAV:   8    -0.574250198093E+02    0.71621E-06   -0.73385E-05  4060   0.107E-01
  14 F= -.57425020E+02 E0= -.57424783E+02  d E =-.109555E+00
 curvature: -11.15 expect dE=-0.437E-01 dE for cont linesearch -0.345E-01
 ZBRENT: increasing intervall
 opt :  40.5843  next Energy=   -57.495730 (dE=-0.180E+00)
 bond charge predicted
       N       E                     dE             d eps       ncg     rms          rms(c)
DAV:   1    -0.574740360770E+02   -0.49016E-01   -0.10733E+02  3600   0.307E+01    0.754E-01
DAV:   2    -0.575062386123E+02   -0.32203E-01   -0.47365E-01  4200   0.702E+00    0.754E-01
DAV:   3    -0.575012268263E+02    0.50118E-02   -0.13739E-01  4040   0.582E+00    0.436E-01
DAV:   4    -0.575016578901E+02   -0.43106E-03   -0.74819E-02  4280   0.429E+00    0.354E-01
DAV:   5    -0.574960839889E+02    0.55739E-02   -0.47713E-02  5260   0.248E+00    0.139E-01
DAV:   6    -0.574959366108E+02    0.14738E-03   -0.11315E-02  4220   0.926E-01    0.109E-01
DAV:   7    -0.574956745829E+02    0.26203E-03   -0.36223E-03  3940   0.876E-01    0.359E-02
DAV:   8    -0.574956909999E+02   -0.16417E-04   -0.48651E-04  4160   0.226E-01    0.248E-02
DAV:   9    -0.574956953880E+02   -0.43881E-05   -0.18983E-04  4000   0.178E-01    0.141E-02
DAV:  10    -0.574956957233E+02   -0.33525E-06   -0.27025E-05  3060   0.919E-02
  15 F= -.57495696E+02 E0= -.57495401E+02  d E =-.180231E+00
 curvature: -22.87 expect dE=-0.112E+00 dE for cont linesearch -0.136E-01
 ZBRENT: increasing intervall
 opt :  82.9331  next Energy=   -57.471762 (dE=-0.156E+00)
 bond charge predicted
       N       E                     dE             d eps       ncg     rms          rms(c)
DAV:   1    -0.572466638859E+02    0.24903E+00   -0.47532E+02  3600   0.686E+01    0.168E+00
DAV:   2    -0.574797773557E+02   -0.23311E+00   -0.30780E+00  4180   0.169E+01    0.165E+00
DAV:   3    -0.574507529272E+02    0.29024E-01   -0.53826E-01  4080   0.117E+01    0.687E-01
DAV:   4    -0.574478345774E+02    0.29183E-02   -0.11701E-01  4040   0.254E+00    0.411E-01
DAV:   5    -0.574536126693E+02   -0.57781E-02   -0.21172E-01  4260   0.688E+00    0.597E-01
DAV:   6    -0.574396827072E+02    0.13930E-01   -0.90755E-02  4700   0.481E+00    0.169E-01
DAV:   7    -0.574397093196E+02   -0.26612E-04   -0.88068E-03  5060   0.103E+00    0.108E-01
DAV:   8    -0.574395125063E+02    0.19681E-03   -0.28233E-03  4080   0.759E-01    0.532E-02
DAV:   9    -0.574395459024E+02   -0.33396E-04   -0.85673E-04  3800   0.363E-01    0.412E-02
DAV:  10    -0.574395541869E+02   -0.82845E-05   -0.27729E-04  3880   0.267E-01    0.211E-02
DAV:  11    -0.574395563683E+02   -0.21814E-05   -0.19093E-04  3980   0.222E-01    0.156E-02
DAV:  12    -0.574395536115E+02    0.27568E-05   -0.39308E-05  2820   0.727E-02
  16 F= -.57439554E+02 E0= -.57439240E+02  d E =-.124089E+00
 curvature:  40.36 expect dE= 0.135E+01 dE for cont linesearch  0.172E+00
 ZBRENT: bracketing found
 ZBRENT: interpolating
 opt :  52.0926  next Energy=   -57.507160 (dE=-0.192E+00)
 bond charge predicted
       N       E                     dE             d eps       ncg     rms          rms(c)
DAV:   1    -0.574364194475E+02    0.31369E-02   -0.23530E+02  3600   0.467E+01    0.104E+00
DAV:   2    -0.575390407660E+02   -0.10262E+00   -0.12985E+00  4340   0.116E+01    0.118E+00
DAV:   3    -0.575234758736E+02    0.15565E-01   -0.37834E-01  4200   0.986E+00    0.600E-01
DAV:   4    -0.575177640739E+02    0.57118E-02   -0.17063E-01  4460   0.569E+00    0.494E-01
DAV:   5    -0.575095499186E+02    0.82142E-02   -0.77982E-02  4460   0.410E+00    0.265E-01
DAV:   6    -0.575096374787E+02   -0.87560E-04   -0.17593E-02  3980   0.154E+00    0.173E-01
DAV:   7    -0.575091780001E+02    0.45948E-03   -0.40382E-03  4140   0.902E-01    0.670E-02
DAV:   8    -0.575091196088E+02    0.58391E-04   -0.11125E-03  5300   0.322E-01    0.275E-02
DAV:   9    -0.575091500060E+02   -0.30397E-04   -0.38994E-04  3920   0.202E-01    0.224E-02
DAV:  10    -0.575091440193E+02    0.59867E-05   -0.11040E-04  3820   0.142E-01    0.137E-02
DAV:  11    -0.575091441863E+02   -0.16699E-06   -0.23493E-05  3000   0.870E-02
  17 F= -.57509144E+02 E0= -.57508849E+02  d E =-.193680E+00
 curvature:  -2.69 expect dE=-0.218E-01 dE for cont linesearch -0.505E-04
 trial: gam= 1.18767 g(F)=  0.809E-02 g(S)=  0.000E+00 ort = 0.354E-03 (trialstep = 0.405E+01)
 search vector abs. value=  0.184E-01
 bond charge predicted
       N       E                     dE             d eps       ncg     rms          rms(c)
DAV:   1    -0.575369792247E+02   -0.27835E-01   -0.77746E+00  3600   0.831E+00    0.195E-01
DAV:   2    -0.575394189567E+02   -0.24397E-02   -0.35476E-02  4120   0.144E+00    0.177E-01
DAV:   3    -0.575391442309E+02    0.27473E-03   -0.40992E-03  4180   0.111E+00    0.104E-01
DAV:   4    -0.575395584596E+02   -0.41423E-03   -0.45328E-03  5700   0.967E-01    0.110E-01
DAV:   5    -0.575388434421E+02    0.71502E-03   -0.38881E-03  5100   0.918E-01    0.264E-02
DAV:   6    -0.575388418253E+02    0.16168E-05   -0.25801E-04  4380   0.196E-01    0.162E-02
DAV:   7    -0.575388414342E+02    0.39109E-06   -0.85438E-05  4060   0.118E-01
  18 F= -.57538841E+02 E0= -.57538598E+02  d E =-.296972E-01
 trial-energy change:   -0.029697  1 .order   -0.029856   -0.034488   -0.025223
 step:  15.0881(harm= 15.0881)  dis= 0.03712  next Energy=   -57.573334 (dE=-0.642E-01)
 bond charge predicted
       N       E                     dE             d eps       ncg     rms          rms(c)
DAV:   1    -0.575589274685E+02   -0.20086E-01   -0.58147E+01  3600   0.229E+01    0.534E-01
DAV:   2    -0.575784850343E+02   -0.19558E-01   -0.27592E-01  4120   0.410E+00    0.488E-01
DAV:   3    -0.575767288456E+02    0.17562E-02   -0.36679E-02  4100   0.320E+00    0.298E-01
DAV:   4    -0.575824829065E+02   -0.57541E-02   -0.75117E-02  4580   0.425E+00    0.386E-01
DAV:   5    -0.575742018752E+02    0.82810E-02   -0.44614E-02  5580   0.319E+00    0.108E-01
DAV:   6    -0.575741866214E+02    0.15254E-04   -0.34319E-03  5060   0.752E-01    0.597E-02
DAV:   7    -0.575741746466E+02    0.11975E-04   -0.97368E-04  4340   0.380E-01    0.245E-02
DAV:   8    -0.575741732458E+02    0.14008E-05   -0.25283E-04  3980   0.148E-01    0.137E-02
DAV:   9    -0.575741735649E+02   -0.31906E-06   -0.47154E-05  3700   0.905E-02
  19 F= -.57574174E+02 E0= -.57574005E+02  d E =-.650294E-01
 curvature: -16.29 expect dE=-0.469E-01 dE for cont linesearch -0.786E-05
 trial: gam= 0.41256 g(F)=  0.288E-02 g(S)=  0.000E+00 ort =-0.941E-04 (trialstep = 0.626E+01)
 search vector abs. value=  0.593E-02
 bond charge predicted
       N       E                     dE             d eps       ncg     rms          rms(c)
DAV:   1    -0.575890141179E+02   -0.14841E-01   -0.28959E+00  3600   0.479E+00    0.164E-01
DAV:   2    -0.575900661199E+02   -0.10520E-02   -0.16592E-02  4100   0.877E-01    0.118E-01
DAV:   3    -0.575901964002E+02   -0.13028E-03   -0.39229E-03  4200   0.106E+00    0.105E-01
DAV:   4    -0.575904384483E+02   -0.24205E-03   -0.56448E-03  4260   0.117E+00    0.119E-01
DAV:   5    -0.575899210161E+02    0.51743E-03   -0.33977E-03  4440   0.873E-01    0.240E-02
DAV:   6    -0.575899055129E+02    0.15503E-04   -0.36306E-04  4780   0.159E-01    0.117E-02
DAV:   7    -0.575899058966E+02   -0.38370E-06   -0.62247E-05  4080   0.882E-02
  20 F= -.57589906E+02 E0= -.57589766E+02  d E =-.157323E-01
 ZBRENT: can't locate minimum, use default step
 trial-energy change:   -0.015732  1 .order   -0.015792   -0.017800   -0.013785
 step:  25.0411(harm= 27.7531)  dis= 0.07355  next Energy=   -57.613629 (dE=-0.395E-01)
 bond charge predicted
       N       E                     dE             d eps       ncg     rms          rms(c)
DAV:   1    -0.576047416678E+02   -0.14836E-01   -0.26311E+01  3600   0.145E+01    0.480E-01
DAV:   2    -0.576147268377E+02   -0.99852E-02   -0.15182E-01  4120   0.241E+00    0.331E-01
DAV:   3    -0.576151962177E+02   -0.46938E-03   -0.26474E-02  4180   0.285E+00    0.307E-01
DAV:   4    -0.576137718115E+02    0.14244E-02   -0.10775E-02  4280   0.194E+00    0.110E-01
DAV:   5    -0.576136571137E+02    0.11470E-03   -0.94677E-03  5440   0.152E+00    0.574E-02
DAV:   6    -0.576135227954E+02    0.13432E-03   -0.27570E-03  5520   0.666E-01    0.262E-02
DAV:   7    -0.576135026017E+02    0.20194E-04   -0.38613E-04  4040   0.192E-01    0.152E-02
DAV:   8    -0.576135066267E+02   -0.40250E-05   -0.11143E-04  3800   0.105E-01    0.134E-02
DAV:   9    -0.576135066297E+02   -0.30159E-08   -0.44762E-05  3780   0.935E-02
  21 F= -.57613507E+02 E0= -.57613414E+02  d E =-.393331E-01
 curvature: -28.49 expect dE=-0.277E-01 dE for cont linesearch -0.371E-03
 ZBRENT: extrapolating
 opt :  27.7554  next Energy=   -57.613884 (dE=-0.397E-01)
 bond charge predicted
       N       E                     dE             d eps       ncg     rms          rms(c)
DAV:   1    -0.576139186785E+02   -0.41205E-03   -0.54612E-01  3600   0.207E+00    0.750E-02
DAV:   2    -0.576141209497E+02   -0.20227E-03   -0.32358E-03  4320   0.500E-01    0.573E-02
DAV:   3    -0.576141430112E+02   -0.22061E-04   -0.14388E-03  4180   0.630E-01    0.502E-02
DAV:   4    -0.576141256082E+02    0.17403E-04   -0.11447E-03  4280   0.535E-01    0.363E-02
DAV:   5    -0.576140782202E+02    0.47388E-04   -0.33855E-04  4660   0.288E-01    0.518E-03
DAV:   6    -0.576140825189E+02   -0.42988E-05   -0.51849E-05  3860   0.515E-02
  22 F= -.57614083E+02 E0= -.57613989E+02  d E =-.399090E-01
 curvature: -28.95 expect dE=-0.302E-01 dE for cont linesearch -0.395E-05
 trial: gam= 0.19915 g(F)=  0.104E-02 g(S)=  0.000E+00 ort =-0.284E-04 (trialstep = 0.106E+02)
 search vector abs. value=  0.127E-02
 bond charge predicted
       N       E                     dE             d eps       ncg     rms          rms(c)
DAV:   1    -0.576221336702E+02   -0.80555E-02   -0.50922E+00  3600   0.650E+00    0.171E-01
DAV:   2    -0.576234550409E+02   -0.13214E-02   -0.19345E-02  4360   0.146E+00    0.163E-01
DAV:   3    -0.576232594462E+02    0.19559E-03   -0.51892E-03  4100   0.121E+00    0.831E-02
DAV:   4    -0.576235077077E+02   -0.24826E-03   -0.48449E-03  4440   0.100E+00    0.936E-02
DAV:   5    -0.576231012196E+02    0.40649E-03   -0.38190E-03  4880   0.931E-01    0.327E-02
DAV:   6    -0.576230943634E+02    0.68562E-05   -0.34382E-04  4060   0.231E-01    0.135E-02
DAV:   7    -0.576230945541E+02   -0.19067E-06   -0.81522E-05  4080   0.863E-02
  23 F= -.57623095E+02 E0= -.57623003E+02  d E =-.901204E-02
 trial-energy change:   -0.009012  1 .order   -0.008847   -0.010962   -0.006731
 step:  21.8663(harm= 27.3574)  dis= 0.00792  next Energy=   -57.626901 (dE=-0.128E-01)
 bond charge predicted
       N       E                     dE             d eps       ncg     rms          rms(c)
DAV:   1    -0.576268146239E+02   -0.37203E-02   -0.58389E+00  3600   0.696E+00    0.186E-01
DAV:   2    -0.576282628948E+02   -0.14483E-02   -0.22490E-02  4280   0.157E+00    0.178E-01
DAV:   3    -0.576280127579E+02    0.25014E-03   -0.54120E-03  4060   0.125E+00    0.873E-02
DAV:   4    -0.576281722791E+02   -0.15952E-03   -0.34982E-03  4840   0.803E-01    0.803E-02
DAV:   5    -0.576278979724E+02    0.27431E-03   -0.40237E-03  4440   0.942E-01    0.448E-02
DAV:   6    -0.576278527697E+02    0.45203E-04   -0.42957E-04  4260   0.310E-01    0.134E-02
DAV:   7    -0.576278521941E+02    0.57554E-06   -0.10356E-04  4100   0.868E-02    0.721E-03
DAV:   8    -0.576278516459E+02    0.54825E-06   -0.26988E-05  3320   0.375E-02
  24 F= -.57627852E+02 E0= -.57627768E+02  d E =-.137691E-01
 curvature: -14.92 expect dE=-0.770E-02 dE for cont linesearch -0.252E-03
 ZBRENT: extrapolating
 opt :  25.2387  next Energy=   -57.628099 (dE=-0.140E-01)
 bond charge predicted
       N       E                     dE             d eps       ncg     rms          rms(c)
DAV:   1    -0.576281278282E+02   -0.27563E-03   -0.51854E-01  3600   0.207E+00    0.540E-02
DAV:   2    -0.576282583179E+02   -0.13049E-03   -0.18646E-03  4240   0.455E-01    0.503E-02
DAV:   3    -0.576282481463E+02    0.10172E-04   -0.58796E-04  4120   0.397E-01    0.278E-02
DAV:   4    -0.576282758257E+02   -0.27679E-04   -0.53976E-04  4200   0.349E-01    0.313E-02
DAV:   5    -0.576282335363E+02    0.42289E-04   -0.32613E-04  4180   0.279E-01    0.675E-03
DAV:   6    -0.576282355625E+02   -0.20263E-05   -0.32631E-05  3520   0.603E-02
  25 F= -.57628236E+02 E0= -.57628148E+02  d E =-.141530E-01
 curvature: -14.60 expect dE=-0.927E-02 dE for cont linesearch -0.102E-06
 trial: gam= 0.56117 g(F)=  0.635E-03 g(S)=  0.000E+00 ort =-0.297E-05 (trialstep = 0.135E+02)
 search vector abs. value=  0.103E-02
 bond charge predicted
       N       E                     dE             d eps       ncg     rms          rms(c)
DAV:   1    -0.576326271727E+02   -0.43936E-02   -0.83562E+00  3600   0.846E+00    0.217E-01
DAV:   2    -0.576345864095E+02   -0.19592E-02   -0.31370E-02  4100   0.202E+00    0.219E-01
DAV:   3    -0.576341498193E+02    0.43659E-03   -0.87235E-03  4160   0.157E+00    0.104E-01
DAV:   4    -0.576345979510E+02   -0.44813E-03   -0.82405E-03  4540   0.132E+00    0.132E-01
DAV:   5    -0.576338636950E+02    0.73426E-03   -0.67204E-03  4480   0.124E+00    0.448E-02
DAV:   6    -0.576338505811E+02    0.13114E-04   -0.62965E-04  4400   0.298E-01    0.211E-02
DAV:   7    -0.576338397909E+02    0.10790E-04   -0.12849E-04  4080   0.120E-01    0.112E-02
DAV:   8    -0.576338362152E+02    0.35757E-05   -0.42207E-05  3560   0.483E-02
  26 F= -.57633836E+02 E0= -.57633759E+02  d E =-.560065E-02
 trial-energy change:   -0.005601  1 .order   -0.005141   -0.008551   -0.001732
 step:  15.8213(harm= 16.9230)  dis= 0.00503  next Energy=   -57.633988 (dE=-0.575E-02)
 bond charge predicted
       N       E                     dE             d eps       ncg     rms          rms(c)
DAV:   1    -0.576340649451E+02   -0.22515E-03   -0.24771E-01  3600   0.146E+00    0.367E-02
DAV:   2    -0.576341299721E+02   -0.65027E-04   -0.94813E-04  4520   0.396E-01    0.379E-02
DAV:   3    -0.576341166160E+02    0.13356E-04   -0.47104E-04  4140   0.344E-01    0.203E-02
DAV:   4    -0.576341151558E+02    0.14602E-05   -0.21774E-04  4100   0.228E-01    0.181E-02
DAV:   5    -0.576341071302E+02    0.80255E-05   -0.58598E-05  3680   0.121E-01
  27 F= -.57634107E+02 E0= -.57634029E+02  d E =-.587157E-02
 curvature: -12.35 expect dE=-0.271E-02 dE for cont linesearch -0.289E-04
 trial: gam= 0.25972 g(F)=  0.219E-03 g(S)=  0.000E+00 ort = 0.491E-04 (trialstep = 0.140E+02)
 search vector abs. value=  0.314E-03
 bond charge predicted
       N       E                     dE             d eps       ncg     rms          rms(c)
DAV:   1    -0.576353254124E+02   -0.12103E-02   -0.30609E+00  3600   0.515E+00    0.112E-01
DAV:   2    -0.576360089549E+02   -0.68354E-03   -0.10510E-02  4060   0.893E-01    0.107E-01
DAV:   3    -0.576359292435E+02    0.79711E-04   -0.21743E-03  4100   0.764E-01    0.642E-02
DAV:   4    -0.576359185875E+02    0.10656E-04   -0.25635E-03  5720   0.719E-01    0.505E-02
DAV:   5    -0.576357689357E+02    0.14965E-03   -0.14600E-03  6040   0.549E-01    0.165E-02
DAV:   6    -0.576357724404E+02   -0.35047E-05   -0.12857E-04  4000   0.110E-01    0.106E-02
DAV:   7    -0.576357720363E+02    0.40403E-06   -0.19367E-05  2620   0.352E-02
  28 F= -.57635772E+02 E0= -.57635698E+02  d E =-.166491E-02
 trial-energy change:   -0.001665  1 .order   -0.001909   -0.003236   -0.000582
 step:  17.0225(harm= 17.0225)  dis= 0.00321  next Energy=   -57.636080 (dE=-0.197E-02)
 bond charge predicted
       N       E                     dE             d eps       ncg     rms          rms(c)
DAV:   1    -0.576357931382E+02   -0.20698E-04   -0.14723E-01  3600   0.113E+00    0.245E-02
DAV:   2    -0.576358292458E+02   -0.36108E-04   -0.51743E-04  4300   0.233E-01    0.248E-02
DAV:   3    -0.576358243601E+02    0.48857E-05   -0.13735E-04  4040   0.189E-01    0.140E-02
DAV:   4    -0.576358249174E+02   -0.55735E-06   -0.11014E-04  2800   0.156E-01    0.122E-02
DAV:   5    -0.576358183185E+02    0.65989E-05   -0.52074E-05  2580   0.115E-01
  29 F= -.57635818E+02 E0= -.57635744E+02  d E =-.171119E-02
 curvature: -11.53 expect dE=-0.583E-03 dE for cont linesearch -0.921E-06
 trial: gam= 0.29750 g(F)=  0.505E-04 g(S)=  0.000E+00 ort = 0.501E-05 (trialstep = 0.146E+02)
 search vector abs. value=  0.813E-04
 bond charge predicted
       N       E                     dE             d eps       ncg     rms          rms(c)
DAV:   1    -0.576365448855E+02   -0.71997E-03   -0.76555E-01  3600   0.255E+00    0.626E-02
DAV:   2    -0.576367191791E+02   -0.17429E-03   -0.27724E-03  4780   0.652E-01    0.669E-02
DAV:   3    -0.576366688784E+02    0.50301E-04   -0.10684E-03  4120   0.533E-01    0.328E-02
DAV:   4    -0.576366719799E+02   -0.31015E-05   -0.61890E-04  4260   0.363E-01    0.295E-02
DAV:   5    -0.576366396278E+02    0.32352E-04   -0.25042E-04  4240   0.259E-01    0.883E-03
DAV:   6    -0.576366439975E+02   -0.43697E-05   -0.55918E-05  4040   0.625E-02
  30 F= -.57636644E+02 E0= -.57636570E+02  d E =-.825679E-03
 trial-energy change:   -0.000826  1 .order   -0.000580   -0.000758   -0.000402
 step:  17.3427(harm= 30.9880)  dis= 0.00543  next Energy=   -57.636684 (dE=-0.866E-03)
 bond charge predicted
       N       E                     dE             d eps       ncg     rms          rms(c)
DAV:   1    -0.576367496533E+02   -0.11003E-03   -0.27646E-02  3600   0.484E-01    0.123E-02
DAV:   2    -0.576367582935E+02   -0.86402E-05   -0.11215E-04  4680   0.148E-01    0.138E-02
DAV:   3    -0.576367558295E+02    0.24640E-05   -0.56642E-05  3520   0.122E-01
  31 F= -.57636756E+02 E0= -.57636682E+02  d E =-.937511E-03
 curvature:  -7.48 expect dE=-0.104E-03 dE for cont linesearch -0.510E-04
 trial: gam=-0.18070 g(F)=  0.139E-04 g(S)=  0.000E+00 ort = 0.235E-04 (trialstep = 0.151E+02)
 search vector abs. value=  0.801E-05
 bond charge predicted
       N       E                     dE             d eps       ncg     rms          rms(c)
DAV:   1    -0.576368018316E+02   -0.43538E-04   -0.76142E-02  3600   0.818E-01    0.214E-02
DAV:   2    -0.576368292512E+02   -0.27420E-04   -0.34018E-04  4540   0.159E-01    0.193E-02
DAV:   3    -0.576368295589E+02   -0.30762E-06   -0.79452E-05  4020   0.142E-01
  32 F= -.57636830E+02 E0= -.57636752E+02  d E =-.737294E-04
 trial-energy change:   -0.000074  1 .order   -0.000087   -0.000145   -0.000029
 step:  18.9193(harm= 18.9193)  dis= 0.00234  next Energy=   -57.636847 (dE=-0.909E-04)
 bond charge predicted
       N       E                     dE             d eps       ncg     rms          rms(c)
DAV:   1    -0.576368720629E+02   -0.42812E-04   -0.48180E-03  3980   0.233E-01    0.132E-02
DAV:   2    -0.576368978423E+02   -0.25779E-04   -0.35718E-04  4060   0.307E-01    0.215E-02
DAV:   3    -0.576368709895E+02    0.26853E-04   -0.24270E-04  2840   0.241E-01    0.584E-03
DAV:   4    -0.576368710537E+02   -0.64218E-07   -0.12935E-05  2380   0.486E-02
  33 F= -.57636871E+02 E0= -.57636794E+02  d E =-.115224E-03
 curvature:  -7.89 expect dE=-0.499E-04 dE for cont linesearch -0.926E-07
 trial: gam= 0.24078 g(F)=  0.632E-05 g(S)=  0.000E+00 ort =-0.307E-06 (trialstep = 0.159E+02)
 search vector abs. value=  0.664E-05
 reached required accuracy - stopping structural energy minimisation
