 vasp.5.4.1 05Feb16 (build Nov 22 2018 20:17:51) complex                        
  
 POSCAR found type information on POSCAR  Pd
 05/POSCAR found :  1 types and      33 ions
 scaLAPACK will be used

 ----------------------------------------------------------------------------- 
|                                                                             |
|           W    W    AA    RRRRR   N    N  II  N    N   GGGG   !!!           |
|           W    W   A  A   R    R  NN   N  II  NN   N  G    G  !!!           |
|           W    W  A    A  R    R  N N  N  II  N N  N  G       !!!           |
|           W WW W  AAAAAA  RRRRR   N  N N  II  N  N N  G  GGG   !            |
|           WW  WW  A    A  R   R   N   NN  II  N   NN  G    G                |
|           W    W  A    A  R    R  N    N  II  N    N   GGGG   !!!           |
|                                                                             |
|      For optimal performance we recommend to set                            |
|        NCORE= 4 - approx SQRT( number of cores)                             |
|      NCORE specifies how many cores store one orbital (NPAR=cpu/NCORE).     |
|      This setting can  greatly improve the performance of VASP for DFT.     |
|      The default, NPAR=number of cores might be grossly inefficient         |
|      on modern multi-core architectures or massively parallel machines.     |
|      Do your own testing !!!!                                               |
|      Unfortunately you need to use the default for GW and RPA calculations. |
|      (for HF NCORE is supported but not extensively tested yet)             |
|                                                                             |
 ----------------------------------------------------------------------------- 

 LDA part: xc-table for Ceperly-Alder, standard interpolation
 POSCAR found type information on POSCAR  Pd
 00/POSCAR found :  1 types and      33 ions
 POSCAR found type information on POSCAR  Pd
 06/POSCAR found :  1 types and      33 ions
 Jacobian:    20.4934437754924     
 POSCAR, INCAR and KPOINTS ok, starting setup
 WARNING: small aliasing (wrap around) errors must be expected
 FFT: planning ...
 WAVECAR not read
 entering main loop
       N       E                     dE             d eps       ncg     rms          rms(c)
DAV:   1     0.284683656045E+04    0.28468E+04   -0.13713E+05 10000   0.138E+03
DAV:   2     0.728069969294E+02   -0.27740E+04   -0.25929E+04 10232   0.415E+02
DAV:   3    -0.153778355597E+03   -0.22659E+03   -0.20407E+03 11616   0.112E+02
DAV:   4    -0.166081490032E+03   -0.12303E+02   -0.11333E+02 11784   0.276E+01
DAV:   5    -0.166357902937E+03   -0.27641E+00   -0.27566E+00 12072   0.373E+00    0.155E+01
RMM:   6    -0.167819917677E+03   -0.14620E+01   -0.25609E+01 10011   0.157E+01    0.200E+01
RMM:   7    -0.177352068841E+03   -0.95322E+01   -0.11359E+01 10035   0.763E+00    0.265E+01
RMM:   8    -0.166179377069E+03    0.11173E+02   -0.97023E+00 10028   0.795E+00    0.199E+01
RMM:   9    -0.161090427477E+03    0.50889E+01   -0.35930E+00 10031   0.536E+00    0.146E+01
RMM:  10    -0.160258386967E+03    0.83204E+00   -0.16164E+00 10028   0.352E+00    0.846E+00
RMM:  11    -0.159815778159E+03    0.44261E+00   -0.20971E-01 10082   0.106E+00    0.703E+00
RMM:  12    -0.159547111165E+03    0.26867E+00   -0.14617E-01 10019   0.102E+00    0.589E+00
RMM:  13    -0.159307102252E+03    0.24001E+00   -0.12917E-01 10030   0.955E-01    0.415E+00
RMM:  14    -0.159114697228E+03    0.19241E+00   -0.22322E-01 10026   0.118E+00    0.246E+00
RMM:  15    -0.159081043229E+03    0.33654E-01   -0.12528E-01 10032   0.885E-01    0.207E+00
RMM:  16    -0.159053844669E+03    0.27199E-01   -0.56593E-02 10035   0.571E-01    0.168E+00
RMM:  17    -0.159031593764E+03    0.22251E-01   -0.25107E-02 10028   0.435E-01    0.913E-01
RMM:  18    -0.159021224103E+03    0.10370E-01   -0.15791E-02 10033   0.316E-01    0.557E-01
RMM:  19    -0.159018396248E+03    0.28279E-02   -0.60901E-03 10028   0.209E-01    0.470E-01
RMM:  20    -0.159013937478E+03    0.44588E-02   -0.33531E-03 10031   0.144E-01    0.295E-01
RMM:  21    -0.159011873181E+03    0.20643E-02   -0.16844E-03 10029   0.108E-01    0.239E-01
RMM:  22    -0.159035305503E+03   -0.23432E-01   -0.56602E-03 10048   0.134E-01    0.166E+00
RMM:  23    -0.159006428907E+03    0.28877E-01   -0.30487E-03 10038   0.112E-01    0.180E-01
RMM:  24    -0.159006078668E+03    0.35024E-03   -0.20652E-03 10057   0.907E-02    0.574E-01
RMM:  25    -0.159002354398E+03    0.37243E-02   -0.14355E-03 10039   0.742E-02    0.295E-01
RMM:  26    -0.159001200835E+03    0.11536E-02   -0.60053E-04 10060   0.482E-02    0.199E-01
RMM:  27    -0.159003005007E+03   -0.18042E-02   -0.74263E-04 10006   0.466E-02    0.432E-01
RMM:  28    -0.159009236506E+03   -0.62315E-02   -0.67686E-04 10017   0.505E-02    0.778E-01
RMM:  29    -0.159007843848E+03    0.13927E-02   -0.95261E-05  8779   0.250E-02    0.621E-01
RMM:  30    -0.159006052380E+03    0.17915E-02   -0.64762E-05  8735   0.160E-02    0.431E-01
RMM:  31    -0.159005396841E+03    0.65554E-03   -0.59956E-05  8047   0.154E-02    0.297E-01
RMM:  32    -0.159007138409E+03   -0.17416E-02   -0.10608E-04  7786   0.185E-02    0.390E-01
RMM:  33    -0.159007354510E+03   -0.21610E-03   -0.10045E-04  7706   0.159E-02    0.321E-01
RMM:  34    -0.159006837032E+03    0.51748E-03   -0.22469E-04  9903   0.221E-02    0.311E-02
RMM:  35    -0.159007013709E+03   -0.17668E-03   -0.64745E-05  7359   0.159E-02    0.290E-02
RMM:  36    -0.159007152288E+03   -0.13858E-03   -0.34507E-05  6558   0.102E-02    0.247E-02
RMM:  37    -0.159007208168E+03   -0.55880E-04   -0.15974E-05  5991   0.741E-03    0.150E-02
RMM:  38    -0.159007270031E+03   -0.61863E-04   -0.27668E-05  6443   0.822E-03    0.118E-02
RMM:  39    -0.159007273930E+03   -0.38992E-05   -0.71858E-06  5717   0.523E-03
   1 F= -.15900727E+03 E0= -.15900415E+03  d E =-.159007E+03
quench:  g(F)=  0.000E+00 g(S)=  0.000E+00 dE (1.order)= 0.000E+00
 bond charge predicted
       N       E                     dE             d eps       ncg     rms          rms(c)
DAV:   1    -0.159086373337E+03   -0.79103E-01   -0.64692E+00 10344   0.520E+00    0.508E-01
RMM:   2    -0.159121596039E+03   -0.35223E-01   -0.21160E-01 10041   0.101E+00    0.155E+00
RMM:   3    -0.159139279475E+03   -0.17683E-01   -0.43381E-02 10792   0.452E-01    0.203E+00
RMM:   4    -0.159109543399E+03    0.29736E-01   -0.11968E-02 10185   0.264E-01    0.734E-01
RMM:   5    -0.159102856096E+03    0.66873E-02   -0.29704E-03 10033   0.146E-01    0.254E-01
RMM:   6    -0.159102199695E+03    0.65640E-03   -0.53820E-04 10033   0.581E-02    0.194E-01
RMM:   7    -0.159101934802E+03    0.26489E-03   -0.61838E-04 10147   0.561E-02    0.178E-01
RMM:   8    -0.159101585817E+03    0.34899E-03   -0.16034E-03 10376   0.762E-02    0.132E-01
RMM:   9    -0.159101492628E+03    0.93189E-04   -0.73473E-04 11719   0.529E-02    0.863E-02
RMM:  10    -0.159101461941E+03    0.30687E-04   -0.14590E-04 10497   0.276E-02    0.547E-02
RMM:  11    -0.159101428054E+03    0.33887E-04   -0.29980E-05  6176   0.148E-02    0.288E-02
RMM:  12    -0.159101419458E+03    0.85957E-05   -0.17211E-05  5437   0.132E-02
   2 F= -.15910142E+03 E0= -.15909829E+03  d E =-.941455E-01
quench:  g(F)=  0.000E+00 g(S)=  0.000E+00 dE (1.order)= 0.000E+00
 bond charge predicted
       N       E                     dE             d eps       ncg     rms          rms(c)
DAV:   1    -0.159169638091E+03   -0.68210E-01   -0.21059E+01 10096   0.942E+00    0.907E-01
RMM:   2    -0.159444309372E+03   -0.27467E+00   -0.70407E-01 10044   0.187E+00    0.535E+00
RMM:   3    -0.159277925730E+03    0.16638E+00   -0.14719E-01 11003   0.841E-01    0.225E+00
RMM:   4    -0.159251564814E+03    0.26361E-01   -0.45182E-02 10037   0.563E-01    0.149E+00
RMM:   5    -0.159226050808E+03    0.25514E-01   -0.97088E-03 10033   0.269E-01    0.445E-01
RMM:   6    -0.159224124416E+03    0.19264E-02   -0.19586E-03 10034   0.117E-01    0.380E-01
RMM:   7    -0.159223134147E+03    0.99027E-03   -0.20931E-03 10141   0.104E-01    0.335E-01
RMM:   8    -0.159221642543E+03    0.14916E-02   -0.44399E-03 10460   0.128E-01    0.169E-01
RMM:   9    -0.159221481262E+03    0.16128E-03   -0.19443E-03 11638   0.885E-02    0.113E-01
RMM:  10    -0.159221530094E+03   -0.48832E-04   -0.73752E-04 11011   0.586E-02    0.110E-01
RMM:  11    -0.159221427629E+03    0.10246E-03   -0.16191E-04  9976   0.306E-02    0.594E-02
RMM:  12    -0.159221394422E+03    0.33208E-04   -0.49255E-05  8086   0.186E-02    0.518E-02
RMM:  13    -0.159221352428E+03    0.41993E-04   -0.10842E-04  9581   0.224E-02    0.244E-02
RMM:  14    -0.159221348431E+03    0.39970E-05   -0.27663E-05  5915   0.123E-02
   3 F= -.15922135E+03 E0= -.15921823E+03  d E =-.119929E+00
quench:  g(F)=  0.000E+00 g(S)=  0.000E+00 dE (1.order)= 0.000E+00
 bond charge predicted
       N       E                     dE             d eps       ncg     rms          rms(c)
DAV:   1    -0.159226519860E+03   -0.51674E-02   -0.31905E+01 10032   0.117E+01    0.103E+00
RMM:   2    -0.159557141188E+03   -0.33062E+00   -0.10396E+00 10044   0.226E+00    0.561E+00
RMM:   3    -0.159375088884E+03    0.18205E+00   -0.20517E-01 11450   0.101E+00    0.246E+00
RMM:   4    -0.159347962684E+03    0.27126E-01   -0.57189E-02 10035   0.629E-01    0.172E+00
RMM:   5    -0.159313595271E+03    0.34367E-01   -0.12417E-02 10033   0.305E-01    0.556E-01
RMM:   6    -0.159310974850E+03    0.26204E-02   -0.25652E-03 10036   0.133E-01    0.481E-01
RMM:   7    -0.159309032808E+03    0.19420E-02   -0.34624E-03 10161   0.130E-01    0.395E-01
RMM:   8    -0.159306706357E+03    0.23265E-02   -0.67808E-03 10592   0.155E-01    0.178E-01
RMM:   9    -0.159306642317E+03    0.64040E-04   -0.32636E-03 12153   0.114E-01    0.147E-01
RMM:  10    -0.159306651399E+03   -0.90821E-05   -0.12656E-03 11360   0.726E-02    0.119E-01
RMM:  11    -0.159306549500E+03    0.10190E-03   -0.20136E-04 10050   0.351E-02    0.828E-02
RMM:  12    -0.159306475357E+03    0.74143E-04   -0.91892E-05  9916   0.237E-02    0.687E-02
RMM:  13    -0.159306400050E+03    0.75307E-04   -0.16745E-04 10086   0.257E-02    0.314E-02
RMM:  14    -0.159306394085E+03    0.59650E-05   -0.56158E-05  8075   0.159E-02
   4 F= -.15930639E+03 E0= -.15930328E+03  d E =-.850457E-01
quench:  g(F)=  0.000E+00 g(S)=  0.000E+00 dE (1.order)= 0.000E+00
 bond charge predicted
       N       E                     dE             d eps       ncg     rms          rms(c)
DAV:   1    -0.159272718979E+03    0.33681E-01   -0.30322E+01 10016   0.115E+01    0.941E-01
RMM:   2    -0.159501829719E+03   -0.22911E+00   -0.97633E-01 10043   0.230E+00    0.430E+00
RMM:   3    -0.159410492195E+03    0.91338E-01   -0.19761E-01 13482   0.899E-01    0.234E+00
RMM:   4    -0.159381288457E+03    0.29204E-01   -0.38647E-02 10034   0.544E-01    0.147E+00
RMM:   5    -0.159355868408E+03    0.25420E-01   -0.93826E-03 10032   0.276E-01    0.525E-01
RMM:   6    -0.159353788866E+03    0.20795E-02   -0.23618E-03 10042   0.120E-01    0.450E-01
RMM:   7    -0.159351522852E+03    0.22660E-02   -0.46304E-03 10358   0.141E-01    0.331E-01
RMM:   8    -0.159349880680E+03    0.16422E-02   -0.70224E-03 11065   0.156E-01    0.186E-01
RMM:   9    -0.159349823070E+03    0.57610E-04   -0.30913E-03 12068   0.112E-01    0.147E-01
RMM:  10    -0.159349846136E+03   -0.23066E-04   -0.10874E-03 11690   0.666E-02    0.117E-01
RMM:  11    -0.159349743877E+03    0.10226E-03   -0.13014E-04 10003   0.299E-02    0.858E-02
RMM:  12    -0.159349643924E+03    0.99953E-04   -0.11006E-04  9916   0.245E-02    0.683E-02
RMM:  13    -0.159349567284E+03    0.76640E-04   -0.18727E-04 10293   0.263E-02    0.318E-02
RMM:  14    -0.159349560799E+03    0.64849E-05   -0.54279E-05  7996   0.160E-02
   5 F= -.15934956E+03 E0= -.15934643E+03  d E =-.431667E-01
quench:  g(F)=  0.000E+00 g(S)=  0.000E+00 dE (1.order)= 0.000E+00
 bond charge predicted
       N       E                     dE             d eps       ncg     rms          rms(c)
DAV:   1    -0.159304352802E+03    0.45214E-01   -0.24610E+01 10016   0.104E+01    0.771E-01
RMM:   2    -0.159432274078E+03   -0.12792E+00   -0.75701E-01 10046   0.198E+00    0.277E+00
RMM:   3    -0.159413326508E+03    0.18948E-01   -0.13774E-01 13946   0.754E-01    0.211E+00
RMM:   4    -0.159387368619E+03    0.25958E-01   -0.23264E-02 10034   0.420E-01    0.117E+00
RMM:   5    -0.159370901794E+03    0.16467E-01   -0.59851E-03 10036   0.225E-01    0.444E-01
RMM:   6    -0.159369339507E+03    0.15623E-02   -0.18264E-03 10091   0.973E-02    0.376E-01
RMM:   7    -0.159367071950E+03    0.22676E-02   -0.59916E-03 10674   0.151E-01    0.260E-01
RMM:   8    -0.159366375305E+03    0.69664E-03   -0.61025E-03 11944   0.147E-01    0.192E-01
RMM:   9    -0.159366408995E+03   -0.33690E-04   -0.21879E-03 11645   0.974E-02    0.146E-01
RMM:  10    -0.159366326732E+03    0.82263E-04   -0.52959E-04 11274   0.510E-02    0.107E-01
RMM:  11    -0.159366235253E+03    0.91479E-04   -0.80825E-05  9627   0.239E-02    0.866E-02
RMM:  12    -0.159366107709E+03    0.12754E-03   -0.16314E-04  9947   0.268E-02    0.613E-02
RMM:  13    -0.159366053177E+03    0.54532E-04   -0.14545E-04 10582   0.227E-02    0.304E-02
RMM:  14    -0.159366044324E+03    0.88527E-05   -0.71294E-05  9429   0.171E-02
   6 F= -.15936604E+03 E0= -.15936293E+03  d E =-.164835E-01
quench:  g(F)=  0.000E+00 g(S)=  0.000E+00 dE (1.order)= 0.000E+00
 bond charge predicted
       N       E                     dE             d eps       ncg     rms          rms(c)
DAV:   1    -0.159339071644E+03    0.26982E-01   -0.14731E+01 10048   0.804E+00    0.573E-01
RMM:   2    -0.159381974843E+03   -0.42903E-01   -0.44712E-01 10048   0.152E+00    0.859E-01
RMM:   3    -0.159438507038E+03   -0.56532E-01   -0.77833E-02 13869   0.566E-01    0.256E+00
RMM:   4    -0.159386295330E+03    0.52212E-01   -0.12445E-02 10044   0.292E-01    0.740E-01
RMM:   5    -0.159378943438E+03    0.73519E-02   -0.33561E-03 10034   0.165E-01    0.334E-01
RMM:   6    -0.159378071812E+03    0.87163E-03   -0.96093E-04 10131   0.682E-02    0.293E-01
RMM:   7    -0.159376787564E+03    0.12842E-02   -0.24131E-03 10659   0.944E-02    0.212E-01
RMM:   8    -0.159376283123E+03    0.50444E-03   -0.35180E-03 11457   0.114E-01    0.177E-01
RMM:   9    -0.159376311985E+03   -0.28862E-04   -0.27045E-03 12138   0.100E-01    0.132E-01
RMM:  10    -0.159376299232E+03    0.12753E-04   -0.58881E-04 11708   0.523E-02    0.107E-01
RMM:  11    -0.159376203339E+03    0.95893E-04   -0.71860E-05  9396   0.231E-02    0.893E-02
RMM:  12    -0.159376057303E+03    0.14604E-03   -0.18788E-04  9944   0.279E-02    0.559E-02
RMM:  13    -0.159376012488E+03    0.44815E-04   -0.13061E-04 10412   0.219E-02    0.304E-02
RMM:  14    -0.159375999790E+03    0.12698E-04   -0.11908E-04  9968   0.213E-02    0.182E-02
RMM:  15    -0.159375999454E+03    0.33663E-06   -0.41329E-05  7004   0.140E-02
   7 F= -.15937600E+03 E0= -.15937284E+03  d E =-.995513E-02
quench:  g(F)=  0.000E+00 g(S)=  0.000E+00 dE (1.order)= 0.000E+00
 bond charge predicted
       N       E                     dE             d eps       ncg     rms          rms(c)
DAV:   1    -0.159376888762E+03   -0.88897E-03   -0.10613E+00 10208   0.212E+00    0.166E-01
RMM:   2    -0.159381504660E+03   -0.46159E-02   -0.33724E-02 10049   0.389E-01    0.487E-01
RMM:   3    -0.159382386863E+03   -0.88220E-03   -0.54574E-03 13453   0.142E-01    0.549E-01
RMM:   4    -0.159380264107E+03    0.21228E-02   -0.12061E-03 10026   0.930E-02    0.241E-01
RMM:   5    -0.159379547511E+03    0.71660E-03   -0.30672E-04 10016   0.500E-02    0.855E-02
RMM:   6    -0.159379486104E+03    0.61408E-04   -0.71102E-05  8560   0.199E-02    0.723E-02
RMM:   7    -0.159379420810E+03    0.65293E-04   -0.17363E-04 10285   0.268E-02    0.592E-02
RMM:   8    -0.159379374111E+03    0.46699E-04   -0.32000E-04 10439   0.335E-02    0.339E-02
RMM:   9    -0.159379378217E+03   -0.41065E-05   -0.10583E-04  9938   0.217E-02    0.295E-02
RMM:  10    -0.159379374565E+03    0.36524E-05   -0.19244E-05  5482   0.112E-02
   8 F= -.15937937E+03 E0= -.15937621E+03  d E =-.337511E-02
quench:  g(F)=  0.000E+00 g(S)=  0.000E+00 dE (1.order)= 0.000E+00
 bond charge predicted
       N       E                     dE             d eps       ncg     rms          rms(c)
DAV:   1    -0.159379482099E+03   -0.10388E-03   -0.77826E-01 10072   0.184E+00    0.144E-01
RMM:   2    -0.159384039750E+03   -0.45577E-02   -0.24419E-02 10045   0.339E-01    0.541E-01
RMM:   3    -0.159382835214E+03    0.12045E-02   -0.40764E-03 13908   0.122E-01    0.361E-01
RMM:   4    -0.159381987288E+03    0.84793E-03   -0.77747E-04 10024   0.778E-02    0.193E-01
RMM:   5    -0.159381532176E+03    0.45511E-03   -0.18330E-04  9999   0.402E-02    0.702E-02
RMM:   6    -0.159381492286E+03    0.39890E-04   -0.44649E-05  7449   0.164E-02    0.609E-02
RMM:   7    -0.159381423079E+03    0.69207E-04   -0.29426E-04 10530   0.337E-02    0.459E-02
RMM:   8    -0.159381411025E+03    0.12053E-04   -0.18386E-04 11554   0.251E-02    0.287E-02
RMM:   9    -0.159381411234E+03   -0.20834E-06   -0.32409E-05  6336   0.139E-02
   9 F= -.15938141E+03 E0= -.15937826E+03  d E =-.203667E-02
quench:  g(F)=  0.000E+00 g(S)=  0.000E+00 dE (1.order)= 0.000E+00
 bond charge predicted
       N       E                     dE             d eps       ncg     rms          rms(c)
DAV:   1    -0.159380831334E+03    0.57969E-03   -0.86646E-01 10016   0.195E+00    0.148E-01
RMM:   2    -0.159385044685E+03   -0.42134E-02   -0.26818E-02 10051   0.357E-01    0.480E-01
RMM:   3    -0.159384654697E+03    0.38999E-03   -0.44015E-03 13996   0.127E-01    0.398E-01
RMM:   4    -0.159383583243E+03    0.10715E-02   -0.76090E-04 10020   0.764E-02    0.193E-01
RMM:   5    -0.159383125525E+03    0.45772E-03   -0.19492E-04 10000   0.413E-02    0.736E-02
RMM:   6    -0.159383082553E+03    0.42971E-04   -0.50844E-05  7864   0.169E-02    0.645E-02
RMM:   7    -0.159383003707E+03    0.78846E-04   -0.31270E-04 10523   0.342E-02    0.481E-02
RMM:   8    -0.159382991318E+03    0.12389E-04   -0.17475E-04 11349   0.246E-02    0.319E-02
RMM:   9    -0.159382992657E+03   -0.13392E-05   -0.51262E-05  7989   0.159E-02
  10 F= -.15938299E+03 E0= -.15937982E+03  d E =-.158142E-02
quench:  g(F)=  0.000E+00 g(S)=  0.000E+00 dE (1.order)= 0.000E+00
 bond charge predicted
       N       E                     dE             d eps       ncg     rms          rms(c)
DAV:   1    -0.159382160378E+03    0.83094E-03   -0.88012E-01 10000   0.197E+00    0.151E-01
RMM:   2    -0.159387166892E+03   -0.50065E-02   -0.27590E-02 10051   0.362E-01    0.562E-01
RMM:   3    -0.159385859427E+03    0.13075E-02   -0.44748E-03 13991   0.128E-01    0.369E-01
RMM:   4    -0.159385008298E+03    0.85113E-03   -0.83332E-04 10022   0.801E-02    0.209E-01
RMM:   5    -0.159384483711E+03    0.52459E-03   -0.21348E-04  9999   0.435E-02    0.725E-02
RMM:   6    -0.159384438606E+03    0.45105E-04   -0.53656E-05  8099   0.174E-02    0.633E-02
RMM:   7    -0.159384371632E+03    0.66974E-04   -0.22026E-04 10853   0.293E-02    0.503E-02
RMM:   8    -0.159384351577E+03    0.20055E-04   -0.20978E-04 11894   0.268E-02    0.364E-02
RMM:   9    -0.159384347782E+03    0.37954E-05   -0.47322E-05  7713   0.155E-02
  11 F= -.15938435E+03 E0= -.15938117E+03  d E =-.135512E-02
quench:  g(F)=  0.000E+00 g(S)=  0.000E+00 dE (1.order)= 0.000E+00
 bond charge predicted
       N       E                     dE             d eps       ncg     rms          rms(c)
DAV:   1    -0.159383823566E+03    0.52801E-03   -0.87192E-01 10000   0.195E+00    0.152E-01
RMM:   2    -0.159389144167E+03   -0.53206E-02   -0.27532E-02 10052   0.357E-01    0.592E-01
RMM:   3    -0.159387466315E+03    0.16779E-02   -0.45135E-03 13904   0.128E-01    0.364E-01
RMM:   4    -0.159386661349E+03    0.80497E-03   -0.88335E-04 10031   0.822E-02    0.213E-01
RMM:   5    -0.159386123384E+03    0.53797E-03   -0.22970E-04 10000   0.452E-02    0.738E-02
RMM:   6    -0.159386076677E+03    0.46707E-04   -0.55725E-05  8103   0.181E-02    0.635E-02
RMM:   7    -0.159386015606E+03    0.61071E-04   -0.17964E-04 10615   0.270E-02    0.507E-02
RMM:   8    -0.159385989823E+03    0.25783E-04   -0.21047E-04 11377   0.267E-02    0.365E-02
RMM:   9    -0.159385985162E+03    0.46612E-05   -0.56695E-05  8303   0.163E-02
  12 F= -.15938599E+03 E0= -.15938280E+03  d E =-.163738E-02
quench:  g(F)=  0.000E+00 g(S)=  0.000E+00 dE (1.order)= 0.000E+00
 bond charge predicted
       N       E                     dE             d eps       ncg     rms          rms(c)
DAV:   1    -0.159385858943E+03    0.13088E-03   -0.76924E-01 10016   0.183E+00    0.145E-01
RMM:   2    -0.159391414837E+03   -0.55559E-02   -0.24717E-02 10051   0.337E-01    0.634E-01
RMM:   3    -0.159389084907E+03    0.23299E-02   -0.40079E-03 13737   0.121E-01    0.339E-01
RMM:   4    -0.159388376675E+03    0.70823E-03   -0.88778E-04 10027   0.824E-02    0.206E-01
RMM:   5    -0.159387877459E+03    0.49922E-03   -0.20884E-04 10001   0.428E-02    0.703E-02
RMM:   6    -0.159387832516E+03    0.44944E-04   -0.42889E-05  7216   0.166E-02    0.594E-02
RMM:   7    -0.159387795759E+03    0.36757E-04   -0.89676E-05  9582   0.214E-02    0.533E-02
RMM:   8    -0.159387751151E+03    0.44608E-04   -0.28898E-04 10256   0.312E-02    0.330E-02
RMM:   9    -0.159387750316E+03    0.83557E-06   -0.71744E-05  9104   0.175E-02
  13 F= -.15938775E+03 E0= -.15938457E+03  d E =-.176515E-02
quench:  g(F)=  0.000E+00 g(S)=  0.000E+00 dE (1.order)= 0.000E+00
 bond charge predicted
       N       E                     dE             d eps       ncg     rms          rms(c)
DAV:   1    -0.159387562314E+03    0.18884E-03   -0.61818E-01 10040   0.164E+00    0.130E-01
RMM:   2    -0.159391460053E+03   -0.38977E-02   -0.19778E-02 10054   0.299E-01    0.509E-01
RMM:   3    -0.159390091712E+03    0.13683E-02   -0.32224E-03 13840   0.108E-01    0.300E-01
RMM:   4    -0.159389470176E+03    0.62154E-03   -0.57755E-04 10017   0.670E-02    0.154E-01
RMM:   5    -0.159389186403E+03    0.28377E-03   -0.13814E-04  9998   0.352E-02    0.625E-02
RMM:   6    -0.159389151958E+03    0.34445E-04   -0.33408E-05  6460   0.146E-02    0.540E-02
RMM:   7    -0.159389106913E+03    0.45045E-04   -0.16733E-04 10618   0.266E-02    0.431E-02
RMM:   8    -0.159389089940E+03    0.16973E-04   -0.12306E-04 10112   0.216E-02    0.261E-02
RMM:   9    -0.159389090280E+03   -0.33979E-06   -0.48073E-05  7794   0.149E-02
  14 F= -.15938909E+03 E0= -.15938591E+03  d E =-.133996E-02
quench:  g(F)=  0.000E+00 g(S)=  0.000E+00 dE (1.order)= 0.000E+00
 bond charge predicted
       N       E                     dE             d eps       ncg     rms          rms(c)
DAV:   1    -0.159389532594E+03   -0.44265E-03   -0.31858E-01 10032   0.117E+00    0.103E-01
RMM:   2    -0.159394750673E+03   -0.52181E-02   -0.11191E-02 10055   0.224E-01    0.703E-01
RMM:   3    -0.159390884685E+03    0.38660E-02   -0.18347E-03 11034   0.858E-02    0.194E-01
RMM:   4    -0.159390560518E+03    0.32417E-03   -0.52648E-04 10008   0.607E-02    0.134E-01
RMM:   5    -0.159390353146E+03    0.20737E-03   -0.10570E-04  9961   0.288E-02    0.488E-02
RMM:   6    -0.159390329525E+03    0.23621E-04   -0.15608E-05  5572   0.115E-02    0.382E-02
RMM:   7    -0.159390316656E+03    0.12870E-04   -0.17702E-05  5434   0.118E-02    0.357E-02
RMM:   8    -0.159390293848E+03    0.22807E-04   -0.91318E-05  9572   0.198E-02    0.208E-02
RMM:   9    -0.159390290058E+03    0.37902E-05   -0.37949E-05  6504   0.139E-02
  15 F= -.15939029E+03 E0= -.15938711E+03  d E =-.119978E-02
quench:  g(F)=  0.000E+00 g(S)=  0.000E+00 dE (1.order)= 0.000E+00
 bond charge predicted
       N       E                     dE             d eps       ncg     rms          rms(c)
DAV:   1    -0.159390729039E+03   -0.43519E-03   -0.15304E-01 10072   0.818E-01    0.626E-02
RMM:   2    -0.159391544529E+03   -0.81549E-03   -0.48736E-03 10053   0.150E-01    0.221E-01
RMM:   3    -0.159391390586E+03    0.15394E-03   -0.76087E-04 13873   0.527E-02    0.162E-01
RMM:   4    -0.159391190360E+03    0.20023E-03   -0.14313E-04  9997   0.332E-02    0.718E-02
RMM:   5    -0.159391127669E+03    0.62692E-04   -0.27664E-05  5860   0.167E-02    0.327E-02
RMM:   6    -0.159391120120E+03    0.75489E-05   -0.89037E-06  5158   0.953E-03
  16 F= -.15939112E+03 E0= -.15938792E+03  d E =-.830062E-03
quench:  g(F)=  0.000E+00 g(S)=  0.000E+00 dE (1.order)= 0.000E+00
 bond charge predicted
       N       E                     dE             d eps       ncg     rms          rms(c)
DAV:   1    -0.159391533521E+03   -0.40585E-03   -0.13758E-01 10000   0.773E-01    0.498E-02
RMM:   2    -0.159392210770E+03   -0.67725E-03   -0.40172E-03 10051   0.137E-01    0.189E-01
RMM:   3    -0.159392157774E+03    0.52996E-04   -0.61153E-04 13871   0.457E-02    0.170E-01
RMM:   4    -0.159391932161E+03    0.22561E-03   -0.12050E-04  9995   0.301E-02    0.673E-02
RMM:   5    -0.159391878808E+03    0.53354E-04   -0.18885E-05  5620   0.136E-02    0.363E-02
RMM:   6    -0.159391871350E+03    0.74572E-05   -0.74925E-06  5193   0.930E-03
  17 F= -.15939187E+03 E0= -.15938867E+03  d E =-.751231E-03
quench:  g(F)=  0.000E+00 g(S)=  0.000E+00 dE (1.order)= 0.000E+00
 bond charge predicted
       N       E                     dE             d eps       ncg     rms          rms(c)
DAV:   1    -0.159392211844E+03   -0.33304E-03   -0.12980E-01 10040   0.752E-01    0.510E-02
RMM:   2    -0.159393173352E+03   -0.96151E-03   -0.37856E-03 10050   0.134E-01    0.270E-01
RMM:   3    -0.159392864100E+03    0.30925E-03   -0.59777E-04 12746   0.469E-02    0.179E-01
RMM:   4    -0.159392568414E+03    0.29569E-03   -0.13502E-04  9990   0.315E-02    0.580E-02
RMM:   5    -0.159392524576E+03    0.43838E-04   -0.13908E-05  5469   0.109E-02    0.363E-02
RMM:   6    -0.159392518100E+03    0.64767E-05   -0.68022E-06  5206   0.931E-03
  18 F= -.15939252E+03 E0= -.15938930E+03  d E =-.646749E-03
quench:  g(F)=  0.000E+00 g(S)=  0.000E+00 dE (1.order)= 0.000E+00
 bond charge predicted
       N       E                     dE             d eps       ncg     rms          rms(c)
DAV:   1    -0.159392855287E+03   -0.33071E-03   -0.55289E-02 10048   0.492E-01    0.416E-02
RMM:   2    -0.159393296025E+03   -0.44074E-03   -0.17420E-03 10032   0.897E-02    0.178E-01
RMM:   3    -0.159393251013E+03    0.45012E-04   -0.27558E-04 10501   0.334E-02    0.169E-01
RMM:   4    -0.159393008690E+03    0.24232E-03   -0.99804E-05  9961   0.257E-02    0.450E-02
RMM:   5    -0.159392980289E+03    0.28401E-04   -0.13442E-05  5538   0.113E-02    0.249E-02
RMM:   6    -0.159392975526E+03    0.47636E-05   -0.47529E-06  5123   0.887E-03
  19 F= -.15939298E+03 E0= -.15938976E+03  d E =-.457426E-03
quench:  g(F)=  0.000E+00 g(S)=  0.000E+00 dE (1.order)= 0.000E+00
 reached required accuracy - stopping structural energy minimisation
 writing wavefunctions
