 running on   40 total cores
 distrk:  each k-point on   40 cores,    1 groups
 distr:  one band on    1 cores,   40 groups
 using from now: INCAR     
 vasp.5.4.1 05Feb16 (build Nov 22 2018 20:17:51) complex                        
  
 POSCAR found type information on POSCAR  Pd
 POSCAR found :  1 types and      33 ions
 scaLAPACK will be used

 ----------------------------------------------------------------------------- 
|                                                                             |
|           W    W    AA    RRRRR   N    N  II  N    N   GGGG   !!!           |
|           W    W   A  A   R    R  NN   N  II  NN   N  G    G  !!!           |
|           W    W  A    A  R    R  N N  N  II  N N  N  G       !!!           |
|           W WW W  AAAAAA  RRRRR   N  N N  II  N  N N  G  GGG   !            |
|           WW  WW  A    A  R   R   N   NN  II  N   NN  G    G                |
|           W    W  A    A  R    R  N    N  II  N    N   GGGG   !!!           |
|                                                                             |
|      For optimal performance we recommend to set                            |
|        NCORE= 4 - approx SQRT( number of cores)                             |
|      NCORE specifies how many cores store one orbital (NPAR=cpu/NCORE).     |
|      This setting can  greatly improve the performance of VASP for DFT.     |
|      The default, NPAR=number of cores might be grossly inefficient         |
|      on modern multi-core architectures or massively parallel machines.     |
|      Do your own testing !!!!                                               |
|      Unfortunately you need to use the default for GW and RPA calculations. |
|      (for HF NCORE is supported but not extensively tested yet)             |
|                                                                             |
 ----------------------------------------------------------------------------- 

 LDA part: xc-table for Ceperly-Alder, standard interpolation
 POSCAR found type information on POSCAR  Pd
 POSCAR found :  1 types and      33 ions
 POSCAR, INCAR and KPOINTS ok, starting setup
 WARNING: small aliasing (wrap around) errors must be expected
 FFT: planning ...
 WAVECAR not read
 entering main loop
       N       E                     dE             d eps       ncg     rms          rms(c)
DAV:   1     0.275390547892E+04    0.27539E+04   -0.13779E+05  6000   0.138E+03
DAV:   2     0.710461665004E+02   -0.26829E+04   -0.25243E+04  6000   0.406E+02
DAV:   3    -0.157519356798E+03   -0.22857E+03   -0.20570E+03  7200   0.106E+02
DAV:   4    -0.165677703347E+03   -0.81583E+01   -0.80715E+01  6400   0.287E+01
DAV:   5    -0.165899902381E+03   -0.22220E+00   -0.22216E+00  8880   0.312E+00    0.157E+01
RMM:   6    -0.165084550515E+03    0.81535E+00   -0.23322E+01  6018   0.157E+01    0.416E+01
RMM:   7    -0.166114838262E+03   -0.10303E+01   -0.10571E+01  6082   0.593E+00    0.174E+01
RMM:   8    -0.176140917193E+03   -0.10026E+02   -0.83212E+00  6028   0.637E+00    0.270E+01
RMM:   9    -0.166268184269E+03    0.98727E+01   -0.47975E+00  6033   0.545E+00    0.193E+01
RMM:  10    -0.161707460637E+03    0.45607E+01   -0.17549E+00  6020   0.369E+00    0.101E+01
RMM:  11    -0.161174529133E+03    0.53293E+00   -0.32514E-01  6083   0.132E+00    0.833E+00
RMM:  12    -0.160828261182E+03    0.34627E+00   -0.14066E-01  6035   0.936E-01    0.721E+00
RMM:  13    -0.160453031189E+03    0.37523E+00   -0.21567E-01  6019   0.113E+00    0.652E+00
RMM:  14    -0.159835950526E+03    0.61708E+00   -0.31680E-01  6017   0.127E+00    0.506E+00
RMM:  15    -0.159439515808E+03    0.39643E+00   -0.23723E-01  6023   0.104E+00    0.442E+00
RMM:  16    -0.159153756403E+03    0.28576E+00   -0.13231E-01  6035   0.700E-01    0.368E+00
RMM:  17    -0.159030371588E+03    0.12338E+00   -0.48614E-02  6182   0.382E-01    0.334E+00
RMM:  18    -0.158783183828E+03    0.24719E+00   -0.98414E-02  6025   0.505E-01    0.263E+00
RMM:  19    -0.158558762557E+03    0.22442E+00   -0.23105E-01  6028   0.703E-01    0.822E-01
RMM:  20    -0.158554374951E+03    0.43876E-02   -0.35185E-02  6861   0.231E-01    0.574E-01
RMM:  21    -0.158554246143E+03    0.12881E-03   -0.94341E-04  6423   0.451E-02    0.579E-01
RMM:  22    -0.158557002260E+03   -0.27561E-02   -0.41405E-03  6019   0.160E-01    0.101E+00
RMM:  23    -0.158556858924E+03    0.14334E-03   -0.12647E-02  6017   0.290E-01    0.953E-01
RMM:  24    -0.158550173414E+03    0.66855E-02   -0.23155E-03  6112   0.105E-01    0.574E-01
RMM:  25    -0.158548717779E+03    0.14556E-02   -0.17046E-03  6018   0.891E-02    0.599E-01
RMM:  26    -0.158543933217E+03    0.47846E-02   -0.23626E-03  6007   0.106E-01    0.218E-01
RMM:  27    -0.158543898097E+03    0.35120E-04   -0.37671E-03  6011   0.130E-01    0.278E-01
RMM:  28    -0.158543444421E+03    0.45368E-03   -0.39266E-04  5922   0.254E-02    0.194E-01
RMM:  29    -0.158543486517E+03   -0.42096E-04   -0.70508E-05  5040   0.189E-02    0.192E-01
RMM:  30    -0.158544563365E+03   -0.10768E-02   -0.17504E-04  5957   0.288E-02    0.270E-01
RMM:  31    -0.158545943926E+03   -0.13806E-02   -0.41633E-04  5818   0.361E-02    0.109E-01
RMM:  32    -0.158546511039E+03   -0.56711E-03   -0.11445E-04  4517   0.182E-02    0.134E-01
RMM:  33    -0.158546842291E+03   -0.33125E-03   -0.73855E-05  4282   0.127E-02    0.961E-02
RMM:  34    -0.158547220889E+03   -0.37860E-03   -0.25928E-04  5033   0.200E-02    0.146E-02
RMM:  35    -0.158547253380E+03   -0.32491E-04   -0.73961E-05  4205   0.118E-02    0.212E-02
RMM:  36    -0.158547348029E+03   -0.94649E-04   -0.29839E-05  3873   0.833E-03    0.977E-02
RMM:  37    -0.158547266642E+03    0.81387E-04   -0.70842E-06  3359   0.636E-03    0.291E-02
RMM:  38    -0.158547263320E+03    0.33226E-05   -0.80677E-06  3388   0.551E-03
   1 F= -.15854726E+03 E0= -.15854472E+03  d E =-.158547E+03
 curvature:   0.00 expect dE= 0.000E+00 dE for cont linesearch  0.000E+00
 trial: gam= 0.00000 g(F)=  0.487E-01 g(S)=  0.000E+00 ort = 0.000E+00 (trialstep = 0.100E+01)
 search vector abs. value=  0.487E-01
 bond charge predicted
       N       E                     dE             d eps       ncg     rms          rms(c)
DAV:   1    -0.158590735286E+03   -0.43469E-01   -0.29380E+00  6920   0.283E+00    0.352E-01
RMM:   2    -0.158604394552E+03   -0.13659E-01   -0.93193E-02  6024   0.533E-01    0.778E-01
RMM:   3    -0.158601487150E+03    0.29074E-02   -0.17564E-02  6790   0.203E-01    0.721E-01
RMM:   4    -0.158601184554E+03    0.30260E-03   -0.29273E-03  6065   0.125E-01    0.757E-01
RMM:   5    -0.158596487855E+03    0.46967E-02   -0.14259E-03  6008   0.987E-02    0.184E-01
RMM:   6    -0.158595990961E+03    0.49689E-03   -0.33646E-04  6002   0.509E-02    0.950E-02
RMM:   7    -0.158595882586E+03    0.10838E-03   -0.35479E-04  6034   0.342E-02    0.799E-02
RMM:   8    -0.158595831552E+03    0.51034E-04   -0.30998E-04  6454   0.302E-02    0.618E-02
RMM:   9    -0.158595823415E+03    0.81375E-05   -0.13477E-04  5833   0.247E-02    0.488E-02
RMM:  10    -0.158595802800E+03    0.20614E-04   -0.39958E-05  4053   0.155E-02    0.234E-02
RMM:  11    -0.158595798373E+03    0.44276E-05   -0.93691E-06  3169   0.105E-02
   2 F= -.15859580E+03 E0= -.15859328E+03  d E =-.485351E-01
 ZBRENT: can't locate minimum, use default step
 trial-energy change:   -0.048535  1 .order   -0.048628   -0.048671   -0.048585
 step:   4.0000(harm=568.9842)  dis= 0.01927  next Energy=  -172.393767 (dE=-0.138E+02)
 bond charge predicted
       N       E                     dE             d eps       ncg     rms          rms(c)
DAV:   1    -0.158688952233E+03   -0.93149E-01   -0.26521E+01  6000   0.856E+00    0.128E+00
RMM:   2    -0.158906178122E+03   -0.21723E+00   -0.11238E+00  6023   0.219E+00    0.302E+00
RMM:   3    -0.159085201225E+03   -0.17902E+00   -0.25377E-01  6537   0.861E-01    0.567E+00
RMM:   4    -0.158754094213E+03    0.33111E+00   -0.74224E-02  6017   0.636E-01    0.676E-01
RMM:   5    -0.158748003044E+03    0.60912E-02   -0.17019E-02  6024   0.321E-01    0.733E-01
RMM:   6    -0.158742677638E+03    0.53254E-02   -0.40706E-03  6042   0.167E-01    0.357E-01
RMM:   7    -0.158741799982E+03    0.87766E-03   -0.16638E-03  6217   0.881E-02    0.293E-01
RMM:   8    -0.158740714925E+03    0.10851E-02   -0.29300E-03  6145   0.954E-02    0.189E-01
RMM:   9    -0.158740530770E+03    0.18415E-03   -0.24417E-03  6639   0.898E-02    0.129E-01
RMM:  10    -0.158740441132E+03    0.89638E-04   -0.78099E-04  6461   0.555E-02    0.759E-02
RMM:  11    -0.158740388224E+03    0.52908E-04   -0.15193E-04  5558   0.300E-02    0.673E-02
RMM:  12    -0.158740358373E+03    0.29851E-04   -0.58647E-05  4277   0.170E-02    0.609E-02
RMM:  13    -0.158740311537E+03    0.46836E-04   -0.94043E-05  4594   0.183E-02    0.262E-02
RMM:  14    -0.158740306431E+03    0.51067E-05   -0.33006E-05  3735   0.134E-02
   3 F= -.15874031E+03 E0= -.15873783E+03  d E =-.193043E+00
 curvature:  -3.00 expect dE=-0.138E+00 dE for cont linesearch -0.137E+00
 ZBRENT: increasing intervall
 opt :  10.0000  next Energy=  -159.013999 (dE=-0.467E+00)
 bond charge predicted
       N       E                     dE             d eps       ncg     rms          rms(c)
DAV:   1    -0.158766471290E+03   -0.26160E-01   -0.10803E+02  6000   0.177E+01    0.305E+00
RMM:   2    -0.160175118825E+03   -0.14086E+01   -0.61979E+00  6019   0.572E+00    0.753E+00
RMM:   3    -0.160790793703E+03   -0.61567E+00   -0.14669E+00  6605   0.212E+00    0.118E+01
RMM:   4    -0.159094173594E+03    0.16966E+01   -0.51109E-01  6018   0.172E+00    0.190E+00
RMM:   5    -0.159055758838E+03    0.38415E-01   -0.13892E-01  6029   0.865E-01    0.169E+00
RMM:   6    -0.159025939752E+03    0.29819E-01   -0.32868E-02  6093   0.422E-01    0.806E-01
RMM:   7    -0.159023291846E+03    0.26479E-02   -0.71622E-03  6489   0.173E-01    0.687E-01
RMM:   8    -0.159019367073E+03    0.39248E-02   -0.53772E-03  6085   0.139E-01    0.527E-01
RMM:   9    -0.159016864028E+03    0.25030E-02   -0.84715E-03  6218   0.177E-01    0.396E-01
RMM:  10    -0.159015503183E+03    0.13608E-02   -0.13108E-02  6545   0.209E-01    0.168E-01
RMM:  11    -0.159015376914E+03    0.12627E-03   -0.13648E-03  6917   0.762E-02    0.138E-01
RMM:  12    -0.159015132265E+03    0.24465E-03   -0.19659E-04  5988   0.317E-02    0.941E-02
RMM:  13    -0.159015041881E+03    0.90384E-04   -0.45817E-04  6001   0.391E-02    0.913E-02
RMM:  14    -0.159014983686E+03    0.58195E-04   -0.33495E-04  6091   0.299E-02    0.636E-02
RMM:  15    -0.159014960395E+03    0.23291E-04   -0.95789E-05  4777   0.190E-02    0.296E-02
RMM:  16    -0.159014954359E+03    0.60363E-05   -0.22293E-05  3568   0.131E-02
   4 F= -.15901495E+03 E0= -.15901251E+03  d E =-.467691E+00
 curvature:  -6.00 expect dE=-0.245E+00 dE for cont linesearch -0.229E+00
 ZBRENT: increasing intervall
 opt :  22.0000  next Energy=  -159.484311 (dE=-0.937E+00)
 bond charge predicted
       N       E                     dE             d eps       ncg     rms          rms(c)
DAV:   1    -0.158377438290E+03    0.63752E+00   -0.46615E+02  6000   0.388E+01    0.867E+00
RMM:   2    -0.175803294203E+03   -0.17426E+02   -0.41872E+01  6018   0.112E+01    0.232E+01
RMM:   3    -0.168876083648E+03    0.69272E+01   -0.97393E+00  6190   0.598E+00    0.211E+01
RMM:   4    -0.161200052573E+03    0.76760E+01   -0.38619E+00  6018   0.510E+00    0.906E+00
RMM:   5    -0.160107760507E+03    0.10923E+01   -0.10232E+00  6022   0.259E+00    0.515E+00
RMM:   6    -0.159743741833E+03    0.36402E+00   -0.48842E-01  6021   0.165E+00    0.433E+00
RMM:   7    -0.159559786829E+03    0.18396E+00   -0.16447E-01  6107   0.883E-01    0.288E+00
RMM:   8    -0.159462009249E+03    0.97778E-01   -0.98903E-02  6044   0.690E-01    0.182E+00
RMM:   9    -0.159428142623E+03    0.33867E-01   -0.44019E-02  6126   0.427E-01    0.113E+00
RMM:  10    -0.159423435822E+03    0.47068E-02   -0.15464E-02  6623   0.257E-01    0.984E-01
RMM:  11    -0.159416183136E+03    0.72527E-02   -0.14796E-02  6054   0.261E-01    0.852E-01
RMM:  12    -0.159410075092E+03    0.61080E-02   -0.24536E-02  6086   0.340E-01    0.430E-01
RMM:  13    -0.159409516203E+03    0.55889E-03   -0.62007E-03  7221   0.148E-01    0.345E-01
RMM:  14    -0.159408225429E+03    0.12908E-02   -0.70806E-04  6023   0.634E-02    0.163E-01
RMM:  15    -0.159408081045E+03    0.14438E-03   -0.57092E-04  6009   0.538E-02    0.167E-01
RMM:  16    -0.159408166532E+03   -0.85487E-04   -0.22313E-04  5966   0.366E-02    0.180E-01
RMM:  17    -0.159407916866E+03    0.24967E-03   -0.17316E-04  5696   0.277E-02    0.697E-02
RMM:  18    -0.159407930343E+03   -0.13478E-04   -0.24072E-04  5319   0.323E-02    0.624E-02
RMM:  19    -0.159407908757E+03    0.21586E-04   -0.28134E-05  3774   0.121E-02    0.304E-02
RMM:  20    -0.159407910805E+03   -0.20477E-05   -0.13511E-05  3460   0.103E-02
   5 F= -.15940791E+03 E0= -.15940540E+03  d E =-.860647E+00
 curvature: -12.29 expect dE=-0.239E+00 dE for cont linesearch -0.790E-01
 ZBRENT: increasing intervall
 opt :  46.0000  next Energy=  -159.222375 (dE=-0.675E+00)
 bond charge predicted
       N       E                     dE             d eps       ncg     rms          rms(c)
DAV:   1    -0.154130688869E+03    0.52772E+01   -0.19638E+03  6240   0.894E+01    0.221E+01
RMM:   2    -0.274079319172E+03   -0.11995E+03   -0.35037E+02  7693   0.309E+01    0.523E+01
RMM:   3    -0.209509020594E+03    0.64570E+02   -0.66805E+01  6005   0.176E+01    0.421E+01
RMM:   4    -0.174729608174E+03    0.34779E+02   -0.26924E+01  6011   0.121E+01    0.261E+01
RMM:   5    -0.164425894004E+03    0.10304E+02   -0.83988E+00  6027   0.743E+00    0.133E+01
RMM:   6    -0.162529824399E+03    0.18961E+01   -0.34368E+00  6013   0.463E+00    0.127E+01
RMM:   7    -0.161098699306E+03    0.14311E+01   -0.10709E+00  6008   0.243E+00    0.102E+01
RMM:   8    -0.160124679888E+03    0.97402E+00   -0.35910E-01  6128   0.135E+00    0.818E+00
RMM:   9    -0.159125389454E+03    0.99929E+00   -0.51280E-01  6011   0.164E+00    0.594E+00
RMM:  10    -0.158643039461E+03    0.48235E+00   -0.28700E-01  6014   0.122E+00    0.426E+00
RMM:  11    -0.158578031459E+03    0.65008E-01   -0.45556E-02  6463   0.396E-01    0.401E+00
RMM:  12    -0.158471592210E+03    0.10644E+00   -0.30182E-02  6016   0.425E-01    0.353E+00
RMM:  13    -0.158265230915E+03    0.20636E+00   -0.11104E-01  6016   0.770E-01    0.217E+00
RMM:  14    -0.158209156591E+03    0.56074E-01   -0.57349E-02  6017   0.546E-01    0.157E+00
RMM:  15    -0.158176185584E+03    0.32971E-01   -0.56409E-02  6026   0.535E-01    0.693E-01
RMM:  16    -0.158174729211E+03    0.14564E-02   -0.11866E-02  6978   0.210E-01    0.556E-01
RMM:  17    -0.158174178975E+03    0.55024E-03   -0.50440E-03  6031   0.181E-01    0.580E-01
RMM:  18    -0.158187855883E+03   -0.13677E-01   -0.17313E-02  6018   0.286E-01    0.119E+00
RMM:  19    -0.158173282723E+03    0.14573E-01   -0.12148E-02  6017   0.260E-01    0.284E-01
RMM:  20    -0.158174389819E+03   -0.11071E-02   -0.21624E-03  6026   0.111E-01    0.505E-01
RMM:  21    -0.158172565979E+03    0.18238E-02   -0.55450E-04  6005   0.564E-02    0.179E-01
RMM:  22    -0.158172390496E+03    0.17548E-03   -0.46910E-04  5894   0.534E-02    0.881E-02
RMM:  23    -0.158172341800E+03    0.48696E-04   -0.87156E-05  5123   0.228E-02    0.737E-02
RMM:  24    -0.158172371613E+03   -0.29813E-04   -0.60504E-05  4482   0.176E-02    0.373E-02
RMM:  25    -0.158172414774E+03   -0.43161E-04   -0.25682E-05  3640   0.128E-02    0.406E-02
RMM:  26    -0.158172486237E+03   -0.71463E-04   -0.29407E-05  3758   0.111E-02    0.651E-02
RMM:  27    -0.158172476287E+03    0.99506E-05   -0.62569E-05  4439   0.192E-02
   6 F= -.15817248E+03 E0= -.15816857E+03  d E =0.374787E+00
 curvature:  28.86 expect dE= 0.196E+02 dE for cont linesearch  0.136E+02
 ZBRENT: bracketing found
 ZBRENT: interpolating
 opt :  24.5060  next Energy=  -159.430074 (dE=-0.883E+00)
 bond charge predicted
       N       E                     dE             d eps       ncg     rms          rms(c)
DAV:   1    -0.152223734309E+03    0.59488E+01   -0.15915E+03  6000   0.847E+01    0.734E+00
RMM:   2    -0.163207600594E+03   -0.10984E+02   -0.12211E+02  6816   0.219E+01    0.674E+00
RMM:   3    -0.164898144098E+03   -0.16905E+01   -0.62541E+00  6485   0.608E+00    0.196E+01
RMM:   4    -0.160574023355E+03    0.43241E+01   -0.16316E+00  6117   0.274E+00    0.847E+00
RMM:   5    -0.159873991953E+03    0.70003E+00   -0.37203E-01  6015   0.163E+00    0.469E+00
RMM:   6    -0.159726955944E+03    0.14704E+00   -0.10901E-01  6021   0.818E-01    0.414E+00
RMM:   7    -0.159567572080E+03    0.15938E+00   -0.12242E-01  6056   0.723E-01    0.263E+00
RMM:   8    -0.159495241577E+03    0.72331E-01   -0.14531E-01  6318   0.734E-01    0.183E+00
RMM:   9    -0.159452730819E+03    0.42511E-01   -0.20381E-01  6324   0.861E-01    0.119E+00
RMM:  10    -0.159449897432E+03    0.28334E-02   -0.10972E-01  6659   0.643E-01    0.905E-01
RMM:  11    -0.159444104097E+03    0.57933E-02   -0.14086E-02  6342   0.276E-01    0.521E-01
RMM:  12    -0.159442678177E+03    0.14259E-02   -0.56838E-03  6016   0.185E-01    0.410E-01
RMM:  13    -0.159440444415E+03    0.22338E-02   -0.42783E-03  6017   0.148E-01    0.286E-01
RMM:  14    -0.159439535182E+03    0.90923E-03   -0.24171E-03  6321   0.100E-01    0.153E-01
RMM:  15    -0.159439444717E+03    0.90465E-04   -0.51503E-04  6015   0.575E-02    0.116E-01
RMM:  16    -0.159439382433E+03    0.62285E-04   -0.33483E-04  6070   0.410E-02    0.530E-02
RMM:  17    -0.159439448607E+03   -0.66174E-04   -0.64548E-05  4912   0.199E-02    0.535E-02
RMM:  18    -0.159439644988E+03   -0.19638E-03   -0.33459E-05  3874   0.152E-02    0.372E-02
RMM:  19    -0.159439784138E+03   -0.13915E-03   -0.19599E-05  3577   0.969E-03    0.217E-02
RMM:  20    -0.159440023619E+03   -0.23948E-03   -0.26570E-05  3798   0.111E-02    0.320E-02
RMM:  21    -0.159440143198E+03   -0.11958E-03   -0.15069E-05  3530   0.789E-03    0.152E-02
RMM:  22    -0.159440393120E+03   -0.24992E-03   -0.44638E-05  4130   0.981E-03    0.790E-02
RMM:  23    -0.159440493129E+03   -0.10001E-03   -0.34489E-05  3859   0.800E-03    0.696E-02
RMM:  24    -0.159440505754E+03   -0.12625E-04   -0.10218E-05  3253   0.509E-03    0.605E-02
RMM:  25    -0.159440512531E+03   -0.67762E-05   -0.13343E-05  3422   0.516E-03
   7 F= -.15944051E+03 E0= -.15943793E+03  d E =-.893249E+00
 curvature:  -0.05 expect dE=-0.884E-03 dE for cont linesearch -0.626E-04
 ZBRENT: interpolating
 opt :  26.4984  next Energy=  -159.448948 (dE=-0.902E+00)
 bond charge predicted
       N       E                     dE             d eps       ncg     rms          rms(c)
DAV:   1    -0.159426828995E+03    0.13677E-01   -0.11595E+01  6000   0.633E+00    0.874E-01
RMM:   2    -0.159684323660E+03   -0.25749E+00   -0.48815E-01  6021   0.163E+00    0.447E+00
RMM:   3    -0.159558240539E+03    0.12608E+00   -0.10940E-01  6427   0.638E-01    0.317E+00
RMM:   4    -0.159456028986E+03    0.10221E+00   -0.48199E-02  6010   0.569E-01    0.609E-01
RMM:   5    -0.159450414610E+03    0.56144E-02   -0.10293E-02  6013   0.256E-01    0.378E-01
RMM:   6    -0.159448974193E+03    0.14404E-02   -0.14454E-03  6023   0.949E-02    0.246E-01
RMM:   7    -0.159448613485E+03    0.36071E-03   -0.42389E-04  6199   0.494E-02    0.197E-01
RMM:   8    -0.159448155115E+03    0.45837E-03   -0.12983E-03  6031   0.728E-02    0.169E-01
RMM:   9    -0.159447875037E+03    0.28008E-03   -0.20012E-03  6414   0.821E-02    0.106E-01
RMM:  10    -0.159447854432E+03    0.20605E-04   -0.54648E-04  7187   0.478E-02    0.651E-02
RMM:  11    -0.159447810073E+03    0.44359E-04   -0.61021E-05  5241   0.207E-02    0.388E-02
RMM:  12    -0.159447788344E+03    0.21729E-04   -0.37226E-05  3971   0.139E-02    0.315E-02
RMM:  13    -0.159447777194E+03    0.11150E-04   -0.45411E-05  4231   0.147E-02    0.203E-02
RMM:  14    -0.159447777026E+03    0.16847E-06   -0.23835E-05  3549   0.113E-02
   8 F= -.15944778E+03 E0= -.15944512E+03  d E =-.900514E+00
 curvature:  -6.32 expect dE=-0.137E+00 dE for cont linesearch -0.162E-03
 trial: gam= 0.46963 g(F)=  0.217E-01 g(S)=  0.000E+00 ort =-0.112E-02 (trialstep = 0.610E+01)
 search vector abs. value=  0.314E-01
 bond charge predicted
       N       E                     dE             d eps       ncg     rms          rms(c)
DAV:   1    -0.159378574054E+03    0.69203E-01   -0.69053E+01  6000   0.166E+01    0.214E+00
RMM:   2    -0.161055393871E+03   -0.16768E+01   -0.34692E+00  6022   0.489E+00    0.984E+00
RMM:   3    -0.160101532538E+03    0.95386E+00   -0.81272E-01  6763   0.169E+00    0.661E+00
RMM:   4    -0.159596257034E+03    0.50528E+00   -0.27847E-01  6018   0.140E+00    0.144E+00
RMM:   5    -0.159570823553E+03    0.25433E-01   -0.64382E-02  6018   0.638E-01    0.115E+00
RMM:   6    -0.159561718550E+03    0.91050E-02   -0.11919E-02  6085   0.264E-01    0.850E-01
RMM:   7    -0.159557146899E+03    0.45717E-02   -0.34525E-03  6159   0.142E-01    0.617E-01
RMM:   8    -0.159552461574E+03    0.46853E-02   -0.10206E-02  6197   0.203E-01    0.478E-01
RMM:   9    -0.159550105418E+03    0.23562E-02   -0.16666E-02  6777   0.242E-01    0.336E-01
RMM:  10    -0.159549648429E+03    0.45699E-03   -0.44612E-03  7903   0.134E-01    0.152E-01
RMM:  11    -0.159549445102E+03    0.20333E-03   -0.47689E-04  6007   0.589E-02    0.116E-01
RMM:  12    -0.159549333721E+03    0.11138E-03   -0.27609E-04  5993   0.368E-02    0.124E-01
RMM:  13    -0.159549190340E+03    0.14338E-03   -0.37437E-04  6140   0.350E-02    0.800E-02
RMM:  14    -0.159549148109E+03    0.42231E-04   -0.28289E-04  6880   0.310E-02    0.257E-02
RMM:  15    -0.159549151518E+03   -0.34090E-05   -0.17636E-05  3429   0.119E-02
   9 F= -.15954915E+03 E0= -.15954647E+03  d E =-.101374E+00
 trial-energy change:   -0.101374  1 .order   -0.101241   -0.129420   -0.073062
 step:  14.0072(harm= 14.0072)  dis= 0.05288  next Energy=  -159.596375 (dE=-0.149E+00)
 bond charge predicted
       N       E                     dE             d eps       ncg     rms          rms(c)
DAV:   1    -0.159287215116E+03    0.26193E+00   -0.11673E+02  6000   0.218E+01    0.301E+00
RMM:   2    -0.162777869514E+03   -0.34907E+01   -0.66659E+00  6025   0.681E+00    0.139E+01
RMM:   3    -0.160632232256E+03    0.21456E+01   -0.15992E+00  6728   0.238E+00    0.860E+00
RMM:   4    -0.159694210902E+03    0.93802E+00   -0.56004E-01  6018   0.201E+00    0.211E+00
RMM:   5    -0.159638375923E+03    0.55835E-01   -0.13317E-01  6019   0.916E-01    0.161E+00
RMM:   6    -0.159621918857E+03    0.16457E-01   -0.26206E-02  6109   0.378E-01    0.123E+00
RMM:   7    -0.159611799989E+03    0.10119E-01   -0.70432E-03  6144   0.203E-01    0.871E-01
RMM:   8    -0.159604853858E+03    0.69461E-02   -0.11665E-02  6334   0.219E-01    0.691E-01
RMM:   9    -0.159598161069E+03    0.66928E-02   -0.23378E-02  6514   0.290E-01    0.412E-01
RMM:  10    -0.159597797906E+03    0.36316E-03   -0.14689E-02  7015   0.250E-01    0.283E-01
RMM:  11    -0.159597219828E+03    0.57808E-03   -0.23190E-03  6310   0.114E-01    0.149E-01
RMM:  12    -0.159597108457E+03    0.11137E-03   -0.40394E-04  6019   0.517E-02    0.179E-01
RMM:  13    -0.159596805970E+03    0.30249E-03   -0.41144E-04  6002   0.423E-02    0.134E-01
RMM:  14    -0.159596660066E+03    0.14590E-03   -0.47958E-04  6622   0.414E-02    0.658E-02
RMM:  15    -0.159596644716E+03    0.15350E-04   -0.16227E-04  6361   0.258E-02    0.225E-02
RMM:  16    -0.159596654335E+03   -0.96195E-05   -0.15533E-05  3403   0.106E-02
  10 F= -.15959665E+03 E0= -.15959378E+03  d E =-.148877E+00
 curvature: -10.37 expect dE=-0.122E+00 dE for cont linesearch -0.105E-04
 trial: gam= 0.20931 g(F)=  0.118E-01 g(S)=  0.000E+00 ort =-0.179E-03 (trialstep = 0.768E+01)
 search vector abs. value=  0.131E-01
 bond charge predicted
       N       E                     dE             d eps       ncg     rms          rms(c)
DAV:   1    -0.159545489173E+03    0.51156E-01   -0.44934E+01  6000   0.138E+01    0.110E+00
RMM:   2    -0.159673586312E+03   -0.12810E+00   -0.13855E+00  6023   0.294E+00    0.157E+00
RMM:   3    -0.159903789263E+03   -0.23020E+00   -0.29700E-01  7958   0.103E+00    0.510E+00
RMM:   4    -0.159687792015E+03    0.21600E+00   -0.50834E-02  6026   0.572E-01    0.137E+00
RMM:   5    -0.159663122868E+03    0.24669E-01   -0.14875E-02  6020   0.335E-01    0.660E-01
RMM:   6    -0.159659688389E+03    0.34345E-02   -0.36593E-03  6023   0.152E-01    0.526E-01
RMM:   7    -0.159656942578E+03    0.27458E-02   -0.42491E-03  6423   0.125E-01    0.409E-01
RMM:   8    -0.159654400121E+03    0.25425E-02   -0.86775E-03  6300   0.182E-01    0.267E-01
RMM:   9    -0.159654365990E+03    0.34130E-04   -0.75566E-03  7210   0.172E-01    0.244E-01
RMM:  10    -0.159654235985E+03    0.13001E-03   -0.25203E-03  6901   0.106E-01    0.134E-01
RMM:  11    -0.159654028964E+03    0.20702E-03   -0.28634E-04  6009   0.448E-02    0.128E-01
RMM:  12    -0.159653751770E+03    0.27719E-03   -0.39288E-04  6021   0.429E-02    0.758E-02
RMM:  13    -0.159653703979E+03    0.47790E-04   -0.16847E-04  6672   0.255E-02    0.483E-02
RMM:  14    -0.159653679539E+03    0.24441E-04   -0.10155E-04  5822   0.203E-02    0.321E-02
RMM:  15    -0.159653671621E+03    0.79173E-05   -0.28907E-05  3481   0.122E-02
  11 F= -.15965367E+03 E0= -.15965094E+03  d E =-.570173E-01
 trial-energy change:   -0.057017  1 .order   -0.055921   -0.090106   -0.021735
 step:   9.8546(harm= 10.1230)  dis= 0.03796  next Energy=  -159.656771 (dE=-0.601E-01)
 bond charge predicted
       N       E                     dE             d eps       ncg     rms          rms(c)
DAV:   1    -0.159649974129E+03    0.37054E-02   -0.35974E+00  6080   0.388E+00    0.283E-01
RMM:   2    -0.159659674172E+03   -0.97000E-02   -0.10039E-01  6023   0.710E-01    0.438E-01
RMM:   3    -0.159675037000E+03   -0.15363E-01   -0.17086E-02  7690   0.258E-01    0.138E+00
RMM:   4    -0.159660162159E+03    0.14875E-01   -0.36271E-03  6031   0.152E-01    0.353E-01
RMM:   5    -0.159658459361E+03    0.17028E-02   -0.91872E-04  6018   0.844E-02    0.158E-01
RMM:   6    -0.159658250790E+03    0.20857E-03   -0.21157E-04  5998   0.366E-02    0.129E-01
RMM:   7    -0.159658026600E+03    0.22419E-03   -0.48996E-04  6263   0.424E-02    0.994E-02
RMM:   8    -0.159657878217E+03    0.14838E-03   -0.92750E-04  6381   0.571E-02    0.521E-02
RMM:   9    -0.159657922477E+03   -0.44260E-04   -0.39373E-04  7383   0.397E-02    0.648E-02
RMM:  10    -0.159657904280E+03    0.18197E-04   -0.71866E-05  5578   0.209E-02    0.383E-02
RMM:  11    -0.159657886095E+03    0.18184E-04   -0.11292E-05  3244   0.978E-03    0.319E-02
RMM:  12    -0.159657861268E+03    0.24827E-04   -0.56057E-05  4652   0.157E-02    0.151E-02
RMM:  13    -0.159657859147E+03    0.21214E-05   -0.16251E-05  3135   0.104E-02
  12 F= -.15965786E+03 E0= -.15965516E+03  d E =-.612048E-01
 curvature:  -5.57 expect dE=-0.191E-01 dE for cont linesearch -0.110E-03
 trial: gam= 0.23571 g(F)=  0.343E-02 g(S)=  0.000E+00 ort = 0.508E-03 (trialstep = 0.812E+01)
 search vector abs. value=  0.439E-02
 bond charge predicted
       N       E                     dE             d eps       ncg     rms          rms(c)
DAV:   1    -0.159639453019E+03    0.18408E-01   -0.16921E+01  6000   0.856E+00    0.617E-01
RMM:   2    -0.159692366763E+03   -0.52914E-01   -0.51936E-01  6026   0.162E+00    0.104E+00
RMM:   3    -0.159719513680E+03   -0.27147E-01   -0.79535E-02  8233   0.539E-01    0.206E+00
RMM:   4    -0.159700259423E+03    0.19254E-01   -0.12043E-02  6051   0.258E-01    0.137E+00
RMM:   5    -0.159682489720E+03    0.17770E-01   -0.50049E-03  6017   0.196E-01    0.374E-01
RMM:   6    -0.159681189751E+03    0.13000E-02   -0.83843E-04  6033   0.708E-02    0.313E-01
RMM:   7    -0.159679711366E+03    0.14784E-02   -0.23365E-03  6263   0.918E-02    0.231E-01
RMM:   8    -0.159678913495E+03    0.79787E-03   -0.40698E-03  6729   0.123E-01    0.146E-01
RMM:   9    -0.159679068427E+03   -0.15493E-03   -0.40676E-03  7398   0.120E-01    0.134E-01
RMM:  10    -0.159678982403E+03    0.86024E-04   -0.40087E-04  6960   0.475E-02    0.103E-01
RMM:  11    -0.159678853868E+03    0.12853E-03   -0.74042E-05  5683   0.217E-02    0.808E-02
RMM:  12    -0.159678726451E+03    0.12742E-03   -0.22667E-04  5967   0.290E-02    0.431E-02
RMM:  13    -0.159678706492E+03    0.19959E-04   -0.92685E-05  5779   0.191E-02    0.301E-02
RMM:  14    -0.159678694404E+03    0.12088E-04   -0.11291E-04  6021   0.207E-02    0.101E-02
RMM:  15    -0.159678694660E+03   -0.25595E-06   -0.15797E-05  3139   0.102E-02
  13 F= -.15967869E+03 E0= -.15967599E+03  d E =-.208355E-01
 trial-energy change:   -0.020836  1 .order   -0.020074   -0.028799   -0.011349
 step:  11.9278(harm= 13.3942)  dis= 0.01932  next Energy=  -159.681439 (dE=-0.236E-01)
 bond charge predicted
       N       E                     dE             d eps       ncg     rms          rms(c)
DAV:   1    -0.159674248152E+03    0.44463E-02   -0.37358E+00  6000   0.402E+00    0.284E-01
RMM:   2    -0.159685780567E+03   -0.11532E-01   -0.11260E-01  6027   0.736E-01    0.495E-01
RMM:   3    -0.159690967681E+03   -0.51871E-02   -0.16562E-02  8191   0.243E-01    0.909E-01
RMM:   4    -0.159687464831E+03    0.35028E-02   -0.25341E-03  6052   0.119E-01    0.640E-01
RMM:   5    -0.159683578276E+03    0.38866E-02   -0.10513E-03  6016   0.890E-02    0.167E-01
RMM:   6    -0.159683314978E+03    0.26330E-03   -0.17467E-04  6000   0.319E-02    0.142E-01
RMM:   7    -0.159682974058E+03    0.34092E-03   -0.67373E-04  6134   0.492E-02    0.106E-01
RMM:   8    -0.159682824526E+03    0.14953E-03   -0.93688E-04  6817   0.571E-02    0.637E-02
RMM:   9    -0.159682873459E+03   -0.48933E-04   -0.67605E-04  7406   0.498E-02    0.654E-02
RMM:  10    -0.159682851099E+03    0.22360E-04   -0.76711E-05  5534   0.220E-02    0.468E-02
RMM:  11    -0.159682827203E+03    0.23896E-04   -0.10555E-05  3201   0.935E-03    0.379E-02
RMM:  12    -0.159682795416E+03    0.31786E-04   -0.52919E-05  4682   0.150E-02    0.199E-02
RMM:  13    -0.159682790036E+03    0.53803E-05   -0.22624E-05  3166   0.112E-02
  14 F= -.15968279E+03 E0= -.15968008E+03  d E =-.249309E-01
 curvature:  -7.65 expect dE=-0.753E-02 dE for cont linesearch -0.348E-03
 ZBRENT: extrapolating
 opt :  13.7191  next Energy=  -159.683190 (dE=-0.253E-01)
 bond charge predicted
       N       E                     dE             d eps       ncg     rms          rms(c)
DAV:   1    -0.159681780800E+03    0.10146E-02   -0.82615E-01  6080   0.189E+00    0.132E-01
RMM:   2    -0.159684303954E+03   -0.25232E-02   -0.24862E-02  6027   0.345E-01    0.227E-01
RMM:   3    -0.159685026412E+03   -0.72246E-03   -0.36220E-03  8177   0.114E-01    0.358E-01
RMM:   4    -0.159684907006E+03    0.11941E-03   -0.51058E-04  6063   0.530E-02    0.338E-01
RMM:   5    -0.159683862825E+03    0.10442E-02   -0.23443E-04  5999   0.413E-02    0.783E-02
RMM:   6    -0.159683798996E+03    0.63829E-04   -0.34113E-05  3945   0.155E-02    0.675E-02
RMM:   7    -0.159683725869E+03    0.73128E-04   -0.15494E-04  6124   0.254E-02    0.515E-02
RMM:   8    -0.159683690262E+03    0.35607E-04   -0.20659E-04  6821   0.272E-02    0.316E-02
RMM:   9    -0.159683699853E+03   -0.95911E-05   -0.14545E-04  6309   0.242E-02    0.319E-02
RMM:  10    -0.159683695969E+03    0.38846E-05   -0.23951E-05  3410   0.117E-02
  15 F= -.15968370E+03 E0= -.15968099E+03  d E =-.258368E-01
 curvature:  -8.80 expect dE=-0.104E-01 dE for cont linesearch -0.186E-03
 ZBRENT: increasing intervall
 opt :  17.3016  next Energy=  -159.684277 (dE=-0.264E-01)
 bond charge predicted
       N       E                     dE             d eps       ncg     rms          rms(c)
DAV:   1    -0.159675168742E+03    0.85311E-02   -0.32908E+00  6000   0.378E+00    0.283E-01
RMM:   2    -0.159685597995E+03   -0.10429E-01   -0.10183E-01  6027   0.698E-01    0.503E-01
RMM:   3    -0.159694251345E+03   -0.86534E-02   -0.15258E-02  8105   0.231E-01    0.110E+00
RMM:   4    -0.159686269208E+03    0.79821E-02   -0.30375E-03  6041   0.134E-01    0.523E-01
RMM:   5    -0.159683357032E+03    0.29122E-02   -0.10318E-03  6016   0.897E-02    0.154E-01
RMM:   6    -0.159683137702E+03    0.21933E-03   -0.16609E-04  5980   0.306E-02    0.126E-01
RMM:   7    -0.159682867061E+03    0.27064E-03   -0.57123E-04  6178   0.453E-02    0.955E-02
RMM:   8    -0.159682758343E+03    0.10872E-03   -0.68269E-04  6863   0.489E-02    0.601E-02
RMM:   9    -0.159682789179E+03   -0.30836E-04   -0.51895E-04  7188   0.442E-02    0.583E-02
RMM:  10    -0.159682772255E+03    0.16924E-04   -0.72403E-05  5442   0.206E-02    0.411E-02
RMM:  11    -0.159682754899E+03    0.17355E-04   -0.91954E-06  3165   0.910E-03    0.333E-02
RMM:  12    -0.159682732442E+03    0.22457E-04   -0.23910E-05  3248   0.114E-02    0.216E-02
RMM:  13    -0.159682726288E+03    0.61544E-05   -0.18466E-05  3103   0.107E-02
  16 F= -.15968273E+03 E0= -.15968001E+03  d E =-.248671E-01
 curvature: -27.51 expect dE=-0.639E-01 dE for cont linesearch -0.712E-02
 ZBRENT: bracketing found
 ZBRENT: interpolating
 opt :  14.5150  next Energy=  -159.683817 (dE=-0.260E-01)
 bond charge predicted
       N       E                     dE             d eps       ncg     rms          rms(c)
DAV:   1    -0.159679370859E+03    0.33616E-02   -0.19911E+00  6000   0.294E+00    0.208E-01
RMM:   2    -0.159685241132E+03   -0.58703E-02   -0.59299E-02  6027   0.530E-01    0.345E-01
RMM:   3    -0.159685839951E+03   -0.59882E-03   -0.87973E-03  8100   0.180E-01    0.397E-01
RMM:   4    -0.159688204350E+03   -0.23644E-02   -0.12514E-03  6075   0.823E-02    0.660E-01
RMM:   5    -0.159684325941E+03    0.38784E-02   -0.59180E-04  6018   0.627E-02    0.120E-01
RMM:   6    -0.159684129827E+03    0.19611E-03   -0.10677E-04  5865   0.272E-02    0.102E-01
RMM:   7    -0.159683975523E+03    0.15430E-03   -0.30939E-04  6223   0.344E-02    0.854E-02
RMM:   8    -0.159683879916E+03    0.95606E-04   -0.37050E-04  6582   0.359E-02    0.515E-02
RMM:   9    -0.159683894698E+03   -0.14781E-04   -0.38464E-04  7184   0.380E-02    0.530E-02
RMM:  10    -0.159683887588E+03    0.71103E-05   -0.86745E-05  5805   0.207E-02
  17 F= -.15968389E+03 E0= -.15968117E+03  d E =-.260284E-01
 curvature:  -0.47 expect dE=-0.612E-03 dE for cont linesearch -0.185E-05
 trial: gam= 0.49784 g(F)=  0.131E-02 g(S)=  0.000E+00 ort =-0.132E-03 (trialstep = 0.940E+01)
 search vector abs. value=  0.227E-02
 bond charge predicted
       N       E                     dE             d eps       ncg     rms          rms(c)
DAV:   1    -0.159666816234E+03    0.17078E-01   -0.11640E+01  6000   0.693E+00    0.571E-01
RMM:   2    -0.159808190819E+03   -0.14137E+00   -0.39090E-01  6029   0.145E+00    0.329E+00
RMM:   3    -0.159726876043E+03    0.81315E-01   -0.67021E-02  7233   0.475E-01    0.168E+00
RMM:   4    -0.159698495499E+03    0.28381E-01   -0.18379E-02  6018   0.360E-01    0.457E-01
RMM:   5    -0.159695467277E+03    0.30282E-02   -0.19621E-03  6019   0.117E-01    0.289E-01
RMM:   6    -0.159694944702E+03    0.52258E-03   -0.55863E-04  6128   0.564E-02    0.246E-01
RMM:   7    -0.159694268092E+03    0.67661E-03   -0.13892E-03  6239   0.772E-02    0.218E-01
RMM:   8    -0.159693510894E+03    0.75720E-03   -0.38090E-03  6293   0.117E-01    0.102E-01
RMM:   9    -0.159693602625E+03   -0.91731E-04   -0.19044E-03  7849   0.816E-02    0.841E-02
RMM:  10    -0.159693546746E+03    0.55879E-04   -0.82920E-05  5728   0.239E-02    0.679E-02
RMM:  11    -0.159693501541E+03    0.45205E-04   -0.23019E-05  3485   0.138E-02    0.543E-02
RMM:  12    -0.159693447819E+03    0.53722E-04   -0.11500E-04  5759   0.218E-02    0.362E-02
RMM:  13    -0.159693428948E+03    0.18872E-04   -0.97549E-05  5629   0.185E-02    0.138E-02
RMM:  14    -0.159693429344E+03   -0.39659E-06   -0.17775E-05  3209   0.107E-02
  18 F= -.15969343E+03 E0= -.15969080E+03  d E =-.954176E-02
 trial-energy change:   -0.009542  1 .order   -0.008685   -0.011670   -0.005699
 step:  13.4179(harm= 18.3642)  dis= 0.00643  next Energy=  -159.694716 (dE=-0.108E-01)
 bond charge predicted
       N       E                     dE             d eps       ncg     rms          rms(c)
DAV:   1    -0.159691286957E+03    0.21420E-02   -0.21340E+00  6000   0.297E+00    0.239E-01
RMM:   2    -0.159717038891E+03   -0.25752E-01   -0.69111E-02  6030   0.583E-01    0.146E+00
RMM:   3    -0.159701328292E+03    0.15711E-01   -0.11194E-02  7116   0.198E-01    0.652E-01
RMM:   4    -0.159697118913E+03    0.42094E-02   -0.31095E-03  6018   0.147E-01    0.215E-01
RMM:   5    -0.159696480287E+03    0.63863E-03   -0.35315E-04  6020   0.515E-02    0.119E-01
RMM:   6    -0.159696384464E+03    0.95823E-04   -0.94268E-05  5512   0.238E-02    0.999E-02
RMM:   7    -0.159696241257E+03    0.14321E-03   -0.36811E-04  6231   0.387E-02    0.853E-02
RMM:   8    -0.159696148811E+03    0.92445E-04   -0.67194E-04  6298   0.478E-02    0.417E-02
RMM:   9    -0.159696159367E+03   -0.10555E-04   -0.20559E-04  6941   0.276E-02    0.322E-02
RMM:  10    -0.159696153413E+03    0.59538E-05   -0.11961E-05  3318   0.967E-03
  19 F= -.15969615E+03 E0= -.15969355E+03  d E =-.122658E-01
 curvature: -11.65 expect dE=-0.656E-02 dE for cont linesearch -0.122E-02
 ZBRENT: increasing intervall
 opt :  21.4622  next Energy=  -159.699104 (dE=-0.152E-01)
 bond charge predicted
       N       E                     dE             d eps       ncg     rms          rms(c)
DAV:   1    -0.159678845554E+03    0.17314E-01   -0.85198E+00  6000   0.593E+00    0.507E-01
RMM:   2    -0.159782741627E+03   -0.10390E+00   -0.28903E-01  6030   0.123E+00    0.285E+00
RMM:   3    -0.159721356854E+03    0.61385E-01   -0.49007E-02  7203   0.408E-01    0.138E+00
RMM:   4    -0.159702395369E+03    0.18961E-01   -0.13913E-02  6018   0.311E-01    0.425E-01
RMM:   5    -0.159699841415E+03    0.25540E-02   -0.15711E-03  6021   0.108E-01    0.237E-01
RMM:   6    -0.159699445209E+03    0.39621E-03   -0.43016E-04  6092   0.506E-02    0.196E-01
RMM:   7    -0.159698963302E+03    0.48191E-03   -0.11186E-03  6280   0.683E-02    0.168E-01
RMM:   8    -0.159698555256E+03    0.40805E-03   -0.24016E-03  6404   0.925E-02    0.809E-02
RMM:   9    -0.159698616346E+03   -0.61090E-04   -0.10194E-03  7772   0.607E-02    0.703E-02
RMM:  10    -0.159698584688E+03    0.31658E-04   -0.55222E-05  4836   0.197E-02    0.571E-02
RMM:  11    -0.159698553621E+03    0.31067E-04   -0.17840E-05  3321   0.133E-02    0.446E-02
RMM:  12    -0.159698520406E+03    0.33215E-04   -0.63126E-05  4876   0.167E-02    0.314E-02
RMM:  13    -0.159698505896E+03    0.14510E-04   -0.65036E-05  4969   0.162E-02    0.122E-02
RMM:  14    -0.159698506616E+03   -0.72063E-06   -0.17533E-05  3216   0.107E-02
  20 F= -.15969851E+03 E0= -.15969596E+03  d E =-.146190E-01
 curvature: -28.22 expect dE=-0.176E-01 dE for cont linesearch -0.394E-04
 trial: gam= 0.23059 g(F)=  0.624E-03 g(S)=  0.000E+00 ort =-0.563E-04 (trialstep = 0.118E+02)
 search vector abs. value=  0.718E-03
 bond charge predicted
       N       E                     dE             d eps       ncg     rms          rms(c)
DAV:   1    -0.159689692060E+03    0.88138E-02   -0.58778E+00  6000   0.499E+00    0.424E-01
RMM:   2    -0.159823096863E+03   -0.13340E+00   -0.20481E-01  6030   0.100E+00    0.345E+00
RMM:   3    -0.159714858191E+03    0.10824E+00   -0.35753E-02  6402   0.372E-01    0.851E-01
RMM:   4    -0.159705750530E+03    0.91077E-02   -0.95560E-03  6019   0.248E-01    0.383E-01
RMM:   5    -0.159703850653E+03    0.18999E-02   -0.11694E-03  6020   0.912E-02    0.200E-01
RMM:   6    -0.159703549605E+03    0.30105E-03   -0.29403E-04  6016   0.457E-02    0.173E-01
RMM:   7    -0.159703267363E+03    0.28224E-03   -0.52486E-04  6153   0.497E-02    0.150E-01
RMM:   8    -0.159702906308E+03    0.36106E-03   -0.16237E-03  6114   0.756E-02    0.688E-02
RMM:   9    -0.159702971584E+03   -0.65276E-04   -0.81018E-04  7751   0.555E-02    0.785E-02
RMM:  10    -0.159702943098E+03    0.28486E-04   -0.87007E-05  5717   0.231E-02    0.458E-02
RMM:  11    -0.159702920492E+03    0.22606E-04   -0.15995E-05  3342   0.115E-02    0.380E-02
RMM:  12    -0.159702890947E+03    0.29545E-04   -0.62972E-05  4997   0.170E-02    0.223E-02
RMM:  13    -0.159702887006E+03    0.39409E-05   -0.21670E-05  3288   0.111E-02
  21 F= -.15970289E+03 E0= -.15970033E+03  d E =-.438039E-02
 trial-energy change:   -0.004380  1 .order   -0.003604   -0.007214    0.000007
 step:  11.8020(harm= 11.7974)  dis= 0.00973  next Energy=  -159.702887 (dE=-0.438E-02)
 bond charge predicted
       N       E                     dE             d eps       ncg     rms          rms(c)
DAV:   1    -0.159702887152E+03    0.37947E-05   -0.24836E-05  5080   0.146E-02    0.509E-03
RMM:   2    -0.159702909536E+03   -0.22384E-04   -0.10930E-05  3231   0.111E-02    0.486E-02
RMM:   3    -0.159702892260E+03    0.17276E-04   -0.46307E-06  3177   0.763E-03    0.183E-02
RMM:   4    -0.159702888860E+03    0.34004E-05   -0.17769E-06  3094   0.411E-03
  22 F= -.15970289E+03 E0= -.15970033E+03  d E =-.438224E-02
 curvature:  -5.87 expect dE=-0.320E-03 dE for cont linesearch -0.132E-04
 ZBRENT: interpolating
 opt :  11.8089  next Energy=  -159.702887 (dE=-0.438E-02)
 bond charge predicted
       N       E                     dE             d eps       ncg     rms          rms(c)
DAV:   1    -0.159702889504E+03    0.27558E-05   -0.29117E-06  4360   0.475E-03    0.486E-03
RMM:   2    -0.159702944818E+03   -0.55314E-04   -0.78701E-06  3270   0.788E-03    0.793E-02
RMM:   3    -0.159702892306E+03    0.52512E-04   -0.60312E-06  3227   0.926E-03    0.881E-03
RMM:   4    -0.159702890306E+03    0.20000E-05   -0.98198E-07  3063   0.339E-03
  23 F= -.15970289E+03 E0= -.15970033E+03  d E =-.438369E-02
 curvature:  -0.00 expect dE=-0.755E-09 dE for cont linesearch -0.427E-10
 ZBRENT: interpolating
 opt :  11.8090  next Energy=  -159.702887 (dE=-0.438E-02)
 bond charge predicted
       N       E                     dE             d eps       ncg     rms          rms(c)
DAV:   1    -0.159702890422E+03    0.18846E-05   -0.57825E-07  4600   0.352E-03    0.344E-03
RMM:   2    -0.159702913067E+03   -0.22646E-04   -0.29863E-06  3202   0.476E-03    0.510E-02
RMM:   3    -0.159702891995E+03    0.21072E-04   -0.25280E-06  3120   0.581E-03    0.806E-03
RMM:   4    -0.159702890760E+03    0.12355E-05   -0.53888E-07  2837   0.250E-03
  24 F= -.15970289E+03 E0= -.15970033E+03  d E =-.438414E-02
 curvature:  -0.00 expect dE=-0.691E-11 dE for cont linesearch -0.429E-12
 ZBRENT: interpolating
 opt :  11.8090  next Energy=  -159.702887 (dE=-0.438E-02)
 bond charge predicted
       N       E                     dE             d eps       ncg     rms          rms(c)
DAV:   1    -0.159702890826E+03    0.11697E-05   -0.32810E-07  4600   0.267E-03    0.282E-03
RMM:   2    -0.159702907991E+03   -0.17165E-04   -0.21484E-06  3154   0.408E-03    0.442E-02
RMM:   3    -0.159702891817E+03    0.16174E-04   -0.18548E-06  3055   0.499E-03    0.656E-03
RMM:   4    -0.159702890991E+03    0.82573E-06   -0.30997E-07  2299   0.207E-03
  25 F= -.15970289E+03 E0= -.15970033E+03  d E =-.438437E-02
 curvature:  -0.00 expect dE=-0.750E-13 dE for cont linesearch -0.480E-14
 ZBRENT:  accuracy reached
 opt :   0.0000  next Energy=     0.000000 (dE= 0.160E+03)
 bond charge predicted
       N       E                     dE             d eps       ncg     rms          rms(c)
DAV:   1    -0.159685345192E+03    0.17547E-01   -0.58763E+00  6000   0.499E+00    0.394E-01
RMM:   2    -0.159794463072E+03   -0.10912E+00   -0.18878E-01  6029   0.923E-01    0.332E+00
RMM:   3    -0.159708281479E+03    0.86182E-01   -0.31618E-02  6293   0.376E-01    0.733E-01
RMM:   4    -0.159702287184E+03    0.59943E-02   -0.80584E-03  6018   0.233E-01    0.471E-01
RMM:   5    -0.159699585082E+03    0.27021E-02   -0.13017E-03  6020   0.994E-02    0.212E-01
RMM:   6    -0.159699240007E+03    0.34507E-03   -0.30201E-04  6017   0.468E-02    0.177E-01
RMM:   7    -0.159698790296E+03    0.44971E-03   -0.80716E-04  6129   0.569E-02    0.125E-01
RMM:   8    -0.159698551213E+03    0.23908E-03   -0.11046E-03  6553   0.616E-02    0.644E-02
RMM:   9    -0.159698578099E+03   -0.26886E-04   -0.61303E-04  7455   0.472E-02    0.641E-02
RMM:  10    -0.159698557719E+03    0.20380E-04   -0.11931E-04  5988   0.249E-02    0.405E-02
RMM:  11    -0.159698537854E+03    0.19865E-04   -0.17091E-05  3387   0.113E-02    0.390E-02
RMM:  12    -0.159698510683E+03    0.27171E-04   -0.52799E-05  4559   0.170E-02    0.169E-02
RMM:  13    -0.159698508353E+03    0.23304E-05   -0.14629E-05  3184   0.101E-02
  26 F= -.15969851E+03 E0= -.15969596E+03  d E =-.173649E-05
 curvature:   0.00 expect dE= 0.207-313 dE for cont linesearch  0.183-313
 ZBRENT: fatal error in bracketing
     please rerun with smaller EDIFF, or copy CONTCAR
     to POSCAR and continue
