 running on   20 total cores
 distrk:  each k-point on   20 cores,    1 groups
 distr:  one band on    1 cores,   20 groups
 using from now: INCAR     
 vasp.5.4.1 05Feb16 (build Sep 02 2018 21:45:25) complex                        
  
 POSCAR found type information on POSCAR  Pt
 POSCAR found :  1 types and      13 ions
 scaLAPACK will be used

 ----------------------------------------------------------------------------- 
|                                                                             |
|           W    W    AA    RRRRR   N    N  II  N    N   GGGG   !!!           |
|           W    W   A  A   R    R  NN   N  II  NN   N  G    G  !!!           |
|           W    W  A    A  R    R  N N  N  II  N N  N  G       !!!           |
|           W WW W  AAAAAA  RRRRR   N  N N  II  N  N N  G  GGG   !            |
|           WW  WW  A    A  R   R   N   NN  II  N   NN  G    G                |
|           W    W  A    A  R    R  N    N  II  N    N   GGGG   !!!           |
|                                                                             |
|      For optimal performance we recommend to set                            |
|        NCORE= 4 - approx SQRT( number of cores)                             |
|      NCORE specifies how many cores store one orbital (NPAR=cpu/NCORE).     |
|      This setting can  greatly improve the performance of VASP for DFT.     |
|      The default, NPAR=number of cores might be grossly inefficient         |
|      on modern multi-core architectures or massively parallel machines.     |
|      Do your own testing !!!!                                               |
|      Unfortunately you need to use the default for GW and RPA calculations. |
|      (for HF NCORE is supported but not extensively tested yet)             |
|                                                                             |
 ----------------------------------------------------------------------------- 

 LDA part: xc-table for Ceperly-Alder, standard interpolation
 POSCAR, INCAR and KPOINTS ok, starting setup
 WARNING: small aliasing (wrap around) errors must be expected
 FFT: planning ...
 WAVECAR not read
 entering main loop
       N       E                     dE             d eps       ncg     rms          rms(c)
DAV:   1     0.951122137001E+03    0.95112E+03   -0.18996E+04   160   0.615E+02
DAV:   2     0.446251707365E+03   -0.50487E+03   -0.47718E+03   280   0.898E+01
DAV:   3     0.405633271958E+02   -0.40569E+03   -0.39664E+03   280   0.107E+02
DAV:   4    -0.429616893575E+02   -0.83525E+02   -0.78472E+02   220   0.676E+01
DAV:   5    -0.512312153102E+02   -0.82695E+01   -0.78190E+01   240   0.233E+01    0.141E+01
DAV:   6    -0.803433709390E+02   -0.29112E+02   -0.68464E+01   280   0.529E+01    0.497E+01
DAV:   7    -0.551109196215E+02    0.25232E+02   -0.22712E+02   260   0.181E+01    0.329E+01
DAV:   8    -0.497266913259E+02    0.53842E+01   -0.14495E+02   240   0.108E+01    0.108E+01
DAV:   9    -0.498927067770E+02   -0.16602E+00   -0.16446E+01   280   0.208E+01    0.130E+01
DAV:  10    -0.480431664648E+02    0.18495E+01   -0.11555E+01   300   0.158E+01    0.773E+00
DAV:  11    -0.475937954101E+02    0.44937E+00   -0.23071E+00   260   0.685E+00    0.593E+00
DAV:  12    -0.474169851479E+02    0.17681E+00   -0.13715E+00   260   0.459E+00    0.568E+00
DAV:  13    -0.471579081280E+02    0.25908E+00   -0.14990E+00   260   0.474E+00    0.374E+00
DAV:  14    -0.470778398599E+02    0.80068E-01   -0.33367E-01   220   0.230E+00    0.283E+00
DAV:  15    -0.470567636229E+02    0.21076E-01   -0.12520E-01   220   0.144E+00    0.252E+00
DAV:  16    -0.470975514886E+02   -0.40788E-01   -0.34222E-01   280   0.266E+00    0.414E+00
DAV:  17    -0.470677068332E+02    0.29845E-01   -0.87954E-01   260   0.280E+00    0.282E+00
DAV:  18    -0.470235881190E+02    0.44119E-01   -0.45649E-01   240   0.287E+00    0.191E+00
DAV:  19    -0.470115781758E+02    0.12010E-01   -0.29333E-01   260   0.237E+00    0.150E+00
DAV:  20    -0.469957955748E+02    0.15783E-01   -0.15411E-01   260   0.161E+00    0.913E-01
DAV:  21    -0.469873664723E+02    0.84291E-02   -0.33856E-02   220   0.105E+00    0.429E-01
DAV:  22    -0.469831523199E+02    0.42142E-02   -0.10667E-02   220   0.568E-01    0.315E-01
DAV:  23    -0.469805009814E+02    0.26513E-02   -0.88206E-03   220   0.421E-01    0.347E-01
DAV:  24    -0.469801452672E+02    0.35571E-03   -0.48923E-03   220   0.376E-01    0.331E-01
DAV:  25    -0.469789492172E+02    0.11961E-02   -0.19968E-03   160   0.209E-01    0.687E-02
DAV:  26    -0.469793888309E+02   -0.43961E-03   -0.63422E-04   140   0.113E-01    0.863E-02
DAV:  27    -0.469807330898E+02   -0.13443E-02   -0.52925E-04   160   0.123E-01    0.765E-02
DAV:  28    -0.469821870946E+02   -0.14540E-02   -0.50651E-04   140   0.113E-01    0.590E-02
DAV:  29    -0.469841661848E+02   -0.19791E-02   -0.97011E-04   200   0.824E-02    0.682E-02
DAV:  30    -0.469852813553E+02   -0.11152E-02   -0.48585E-04   140   0.597E-02    0.143E-02
DAV:  31    -0.469858645210E+02   -0.58317E-03   -0.12115E-04   120   0.346E-02    0.111E-02
DAV:  32    -0.469863409397E+02   -0.47642E-03   -0.95500E-05   100   0.300E-02    0.658E-03
DAV:  33    -0.469867155720E+02   -0.37463E-03   -0.65987E-05   100   0.252E-02    0.664E-03
DAV:  34    -0.469869968633E+02   -0.28129E-03   -0.40715E-05   100   0.210E-02    0.454E-03
DAV:  35    -0.469871367894E+02   -0.13993E-03   -0.23043E-05   100   0.160E-02    0.277E-03
DAV:  36    -0.469872220637E+02   -0.85274E-04   -0.17457E-05   100   0.133E-02
   1 F= -.46987222E+02 E0= -.46806946E+02  d E =-.469872E+02
 summed vel is now  6.938893903907228E-018  8.673617379884035E-019
  6.938893903907228E-018
quench:  g(F)=  0.378E+00 g(S)=  0.000E+00 dE (1.order)=-0.755E+00
 bond charge predicted
       N       E                     dE             d eps       ncg     rms          rms(c)
DAV:   1    -0.475925028053E+02   -0.60537E+00   -0.89883E+01   160   0.282E+01    0.177E+00
DAV:   2    -0.481353035148E+02   -0.54280E+00   -0.41811E+00   240   0.910E+00    0.104E+01
DAV:   3    -0.479416556669E+02    0.19365E+00   -0.47045E+00   200   0.416E+00    0.419E+00
DAV:   4    -0.478077354437E+02    0.13392E+00   -0.12561E+00   220   0.488E+00    0.340E+00
DAV:   5    -0.477986487770E+02    0.90867E-02   -0.10446E+00   220   0.251E+00    0.242E+00
DAV:   6    -0.477490005987E+02    0.49648E-01   -0.22310E-01   240   0.215E+00    0.154E+00
DAV:   7    -0.477414589784E+02    0.75416E-02   -0.11424E-01   220   0.125E+00    0.124E+00
DAV:   8    -0.477376265380E+02    0.38324E-02   -0.63587E-02   220   0.962E-01    0.101E+00
DAV:   9    -0.477313960934E+02    0.62304E-02   -0.21979E-02   220   0.743E-01    0.543E-01
DAV:  10    -0.477322751284E+02   -0.87903E-03   -0.35344E-02   240   0.817E-01    0.661E-01
DAV:  11    -0.477298298562E+02    0.24453E-02   -0.24001E-02   220   0.727E-01    0.409E-01
DAV:  12    -0.477282961915E+02    0.15337E-02   -0.82734E-03   220   0.417E-01    0.304E-01
DAV:  13    -0.477279520899E+02    0.34410E-03   -0.39002E-03   200   0.284E-01    0.184E-01
DAV:  14    -0.477276047110E+02    0.34738E-03   -0.15920E-03   120   0.231E-01    0.101E-01
DAV:  15    -0.477275732765E+02    0.31435E-04   -0.10925E-03   100   0.167E-01    0.958E-02
DAV:  16    -0.477275079461E+02    0.65330E-04   -0.50893E-04   100   0.123E-01
   2 F= -.47727508E+02 E0= -.47546501E+02  d E =-.740286E+00
 summed vel is now -1.387778780781446E-017  5.204170427930421E-018
 -2.775557561562891E-017
quench:  g(F)=  0.352E+00 g(S)=  0.000E+00 dE (1.order)=-0.143E+01
 bond charge predicted
       N       E                     dE             d eps       ncg     rms          rms(c)
DAV:   1    -0.484011525286E+02   -0.67358E+00   -0.34653E+02   160   0.565E+01    0.370E+00
DAV:   2    -0.500178449983E+02   -0.16167E+01   -0.16695E+01   240   0.200E+01    0.777E+00
DAV:   3    -0.498958691184E+02    0.12198E+00   -0.47420E+00   260   0.136E+01    0.164E+01
DAV:   4    -0.494103756050E+02    0.48549E+00   -0.16663E+01   260   0.511E+00    0.475E+00
DAV:   5    -0.492906462406E+02    0.11973E+00   -0.26292E+00   260   0.606E+00    0.551E+00
DAV:   6    -0.492289542975E+02    0.61692E-01   -0.20661E+00   260   0.333E+00    0.326E+00
DAV:   7    -0.491452714266E+02    0.83683E-01   -0.28599E-01   260   0.281E+00    0.189E+00
DAV:   8    -0.491280836336E+02    0.17188E-01   -0.11216E-01   220   0.169E+00    0.164E+00
DAV:   9    -0.491155811153E+02    0.12503E-01   -0.97617E-02   260   0.153E+00    0.119E+00
DAV:  10    -0.491123672433E+02    0.32139E-02   -0.98398E-02   220   0.144E+00    0.110E+00
DAV:  11    -0.491115549970E+02    0.81225E-03   -0.11461E-01   220   0.127E+00    0.120E+00
DAV:  12    -0.491047344421E+02    0.68206E-02   -0.75343E-02   220   0.967E-01    0.534E-01
DAV:  13    -0.491027774108E+02    0.19570E-02   -0.27767E-02   220   0.626E-01    0.388E-01
DAV:  14    -0.491017517826E+02    0.10256E-02   -0.14007E-02   220   0.516E-01    0.256E-01
DAV:  15    -0.491009722620E+02    0.77952E-03   -0.38141E-03   200   0.306E-01    0.131E-01
DAV:  16    -0.491007919189E+02    0.18034E-03   -0.10297E-03   100   0.186E-01    0.945E-02
DAV:  17    -0.491007688476E+02    0.23071E-04   -0.44637E-04   100   0.135E-01
   3 F= -.49100769E+02 E0= -.48921333E+02  d E =-.137326E+01
 summed vel is now  0.000000000000000E+000 -3.469446951953614E-018
 -9.714451465470120E-017
quench:  g(F)=  0.312E+00 g(S)=  0.000E+00 dE (1.order)=-0.193E+01
 bond charge predicted
       N       E                     dE             d eps       ncg     rms          rms(c)
DAV:   1    -0.493869219871E+02   -0.28613E+00   -0.72714E+02   160   0.842E+01    0.669E+00
DAV:   2    -0.570195673587E+02   -0.76326E+01   -0.72838E+01   240   0.399E+01    0.147E+01
DAV:   3    -0.519912000560E+02    0.50284E+01   -0.18504E+01   260   0.294E+01    0.766E+00
DAV:   4    -0.512146285346E+02    0.77657E+00   -0.45164E+00   240   0.119E+01    0.492E+00
DAV:   5    -0.510375322501E+02    0.17710E+00   -0.20772E+00   240   0.623E+00    0.283E+00
DAV:   6    -0.510335500732E+02    0.39822E-02   -0.12651E+00   220   0.448E+00    0.392E+00
DAV:   7    -0.509719916843E+02    0.61558E-01   -0.11913E+00   240   0.319E+00    0.210E+00
DAV:   8    -0.509759801220E+02   -0.39884E-02   -0.53071E-01   240   0.262E+00    0.252E+00
DAV:   9    -0.509445370900E+02    0.31443E-01   -0.56217E-01   220   0.241E+00    0.149E+00
DAV:  10    -0.509417916767E+02    0.27454E-02   -0.22519E-01   240   0.196E+00    0.133E+00
DAV:  11    -0.509337152334E+02    0.80764E-02   -0.13558E-01   240   0.168E+00    0.883E-01
DAV:  12    -0.509279848715E+02    0.57304E-02   -0.65054E-02   220   0.116E+00    0.536E-01
DAV:  13    -0.509263530376E+02    0.16318E-02   -0.23712E-02   220   0.709E-01    0.362E-01
DAV:  14    -0.509249329793E+02    0.14201E-02   -0.10217E-02   220   0.488E-01    0.163E-01
DAV:  15    -0.509244944900E+02    0.43849E-03   -0.26984E-03   200   0.257E-01    0.104E-01
DAV:  16    -0.509244339711E+02    0.60519E-04   -0.11163E-03   100   0.163E-01    0.705E-02
DAV:  17    -0.509244204765E+02    0.13495E-04   -0.34646E-04   100   0.113E-01
   4 F= -.50924420E+02 E0= -.50759861E+02  d E =-.182365E+01
 summed vel is now -2.775557561562891E-017  6.938893903907228E-018
  5.551115123125783E-017
quench:  g(F)=  0.249E+00 g(S)=  0.000E+00 dE (1.order)=-0.212E+01
 bond charge predicted
       N       E                     dE             d eps       ncg     rms          rms(c)
DAV:   1    -0.505858755892E+02    0.33856E+00   -0.11344E+03   160   0.108E+02    0.115E+01
DAV:   2    -0.700644907161E+02   -0.19479E+02   -0.19231E+02   240   0.693E+01    0.214E+01
DAV:   3    -0.566980237236E+02    0.13366E+02   -0.41889E+01   260   0.440E+01    0.135E+01
DAV:   4    -0.542798676341E+02    0.24182E+01   -0.18116E+01   240   0.202E+01    0.851E+00
DAV:   5    -0.532966548586E+02    0.98321E+00   -0.30116E+00   240   0.101E+01    0.645E+00
DAV:   6    -0.528665950149E+02    0.43006E+00   -0.23413E+00   240   0.697E+00    0.437E+00
DAV:   7    -0.526746021498E+02    0.19199E+00   -0.76510E-01   260   0.485E+00    0.257E+00
DAV:   8    -0.526532491705E+02    0.21353E-01   -0.78712E-01   240   0.339E+00    0.261E+00
DAV:   9    -0.526073511650E+02    0.45898E-01   -0.58083E-01   220   0.276E+00    0.134E+00
DAV:  10    -0.526275006371E+02   -0.20149E-01   -0.24250E-01   240   0.232E+00    0.183E+00
DAV:  11    -0.526143250300E+02    0.13176E-01   -0.29137E-01   220   0.253E+00    0.147E+00
DAV:  12    -0.525974478283E+02    0.16877E-01   -0.23395E-01   260   0.214E+00    0.768E-01
DAV:  13    -0.525909564475E+02    0.64914E-02   -0.27959E-02   200   0.745E-01    0.306E-01
DAV:  14    -0.525900572101E+02    0.89924E-03   -0.12314E-02   260   0.546E-01    0.295E-01
DAV:  15    -0.525894893731E+02    0.56784E-03   -0.40220E-03   200   0.349E-01    0.140E-01
DAV:  16    -0.525892034691E+02    0.28590E-03   -0.16979E-03   140   0.201E-01    0.564E-02
DAV:  17    -0.525893097472E+02   -0.10628E-03   -0.41897E-04   140   0.116E-01    0.375E-02
DAV:  18    -0.525895107820E+02   -0.20103E-03   -0.17174E-04   100   0.781E-02    0.275E-02
DAV:  19    -0.525897478068E+02   -0.23702E-03   -0.12159E-04   120   0.627E-02    0.352E-02
DAV:  20    -0.525899298776E+02   -0.18207E-03   -0.14370E-04   120   0.535E-02    0.157E-02
DAV:  21    -0.525901586925E+02   -0.22881E-03   -0.67776E-05   120   0.338E-02    0.120E-02
DAV:  22    -0.525903091209E+02   -0.15043E-03   -0.39515E-05   120   0.272E-02    0.808E-03
DAV:  23    -0.525904639511E+02   -0.15483E-03   -0.40256E-05   120   0.251E-02    0.629E-03
DAV:  24    -0.525905843904E+02   -0.12044E-03   -0.46253E-05   120   0.229E-02    0.797E-03
DAV:  25    -0.525906668770E+02   -0.82487E-04   -0.43294E-05   120   0.237E-02
   5 F= -.52590667E+02 E0= -.52442561E+02  d E =-.166625E+01
 summed vel is now  0.000000000000000E+000 -5.204170427930421E-018
 -1.387778780781446E-017
quench:  g(F)=  0.150E+00 g(S)=  0.000E+00 dE (1.order)=-0.116E+01
 bond charge predicted
       N       E                     dE             d eps       ncg     rms          rms(c)
DAV:   1    -0.523995994203E+02    0.19098E+00   -0.54554E+02   160   0.729E+01    0.884E+00
DAV:   2    -0.634935504725E+02   -0.11094E+02   -0.15664E+02   240   0.517E+01    0.222E+01
DAV:   3    -0.592661164873E+02    0.42274E+01   -0.11261E+02   280   0.310E+01    0.137E+01
DAV:   4    -0.548148696579E+02    0.44512E+01   -0.12009E+01   280   0.244E+01    0.771E+00
DAV:   5    -0.540148669431E+02    0.80000E+00   -0.34819E+00   240   0.106E+01    0.551E+00
DAV:   6    -0.536817253737E+02    0.33314E+00   -0.13087E+00   260   0.621E+00    0.451E+00
DAV:   7    -0.534183278472E+02    0.26340E+00   -0.10487E+00   240   0.496E+00    0.257E+00
DAV:   8    -0.533464818514E+02    0.71846E-01   -0.29110E-01   240   0.285E+00    0.165E+00
DAV:   9    -0.533563597025E+02   -0.98779E-02   -0.39849E-01   260   0.254E+00    0.214E+00
DAV:  10    -0.533214181665E+02    0.34942E-01   -0.33107E-01   240   0.226E+00    0.101E+00
DAV:  11    -0.533136310920E+02    0.77871E-02   -0.12596E-01   220   0.157E+00    0.636E-01
DAV:  12    -0.533187000461E+02   -0.50690E-02   -0.13040E-01   220   0.166E+00    0.976E-01
DAV:  13    -0.533103992801E+02    0.83008E-02   -0.67558E-02   240   0.121E+00    0.249E-01
DAV:  14    -0.533081407305E+02    0.22585E-02   -0.10738E-02   220   0.605E-01    0.194E-01
DAV:  15    -0.533080505773E+02    0.90153E-04   -0.31049E-03   200   0.337E-01    0.170E-01
DAV:  16    -0.533078417686E+02    0.20881E-03   -0.15886E-03   140   0.218E-01    0.580E-02
DAV:  17    -0.533078653520E+02   -0.23583E-04   -0.63429E-04   100   0.133E-01
   6 F= -.53307865E+02 E0= -.53175837E+02  d E =-.717198E+00
 summed vel is now  6.938893903907228E-018 -3.469446951953614E-018
  0.000000000000000E+000
quench:  g(F)=  0.957E-01 g(S)=  0.000E+00 dE (1.order)=-0.380E+00
 bond charge predicted
       N       E                     dE             d eps       ncg     rms          rms(c)
DAV:   1    -0.534868736685E+02   -0.17903E+00   -0.88693E+01   160   0.280E+01    0.328E+00
DAV:   2    -0.558593856140E+02   -0.23725E+01   -0.23923E+01   240   0.211E+01    0.105E+01
DAV:   3    -0.538392725059E+02    0.20201E+01   -0.69157E+00   260   0.165E+01    0.426E+00
DAV:   4    -0.536896193165E+02    0.14965E+00   -0.25732E+00   240   0.565E+00    0.306E+00
DAV:   5    -0.536215677311E+02    0.68052E-01   -0.74721E-01   240   0.343E+00    0.186E+00
DAV:   6    -0.535979785737E+02    0.23589E-01   -0.29788E-01   200   0.190E+00    0.902E-01
DAV:   7    -0.535893149616E+02    0.86636E-02   -0.76220E-02   220   0.128E+00    0.541E-01
DAV:   8    -0.535875756554E+02    0.17393E-02   -0.26598E-02   220   0.948E-01    0.453E-01
DAV:   9    -0.535855473345E+02    0.20283E-02   -0.22035E-02   220   0.934E-01    0.343E-01
DAV:  10    -0.535841977243E+02    0.13496E-02   -0.11861E-02   220   0.664E-01    0.179E-01
DAV:  11    -0.535839591266E+02    0.23860E-03   -0.60763E-03   200   0.390E-01    0.170E-01
DAV:  12    -0.535837656749E+02    0.19345E-03   -0.23789E-03   100   0.234E-01    0.107E-01
DAV:  13    -0.535836610485E+02    0.10463E-03   -0.91806E-04   100   0.162E-01    0.647E-02
DAV:  14    -0.535836659099E+02   -0.48615E-05   -0.55162E-04   160   0.121E-01
   7 F= -.53583666E+02 E0= -.53452032E+02  d E =-.275801E+00
 summed vel is now  0.000000000000000E+000  3.469446951953614E-018
 -3.469446951953614E-018
quench:  g(F)=  0.488E-01 g(S)=  0.000E+00 dE (1.order)=-0.254E+00
 bond charge predicted
       N       E                     dE             d eps       ncg     rms          rms(c)
DAV:   1    -0.536818231670E+02   -0.98162E-01   -0.77433E+01   160   0.261E+01    0.199E+00
DAV:   2    -0.544110423307E+02   -0.72922E+00   -0.71456E+00   240   0.127E+01    0.600E+00
DAV:   3    -0.539334256950E+02    0.47762E+00   -0.22312E+00   240   0.928E+00    0.314E+00
DAV:   4    -0.538533606292E+02    0.80065E-01   -0.12943E+00   220   0.379E+00    0.163E+00
DAV:   5    -0.538331884448E+02    0.20172E-01   -0.26149E-01   220   0.195E+00    0.103E+00
DAV:   6    -0.538263242268E+02    0.68642E-02   -0.11663E-01   220   0.126E+00    0.758E-01
DAV:   7    -0.538228319200E+02    0.34923E-02   -0.49304E-02   220   0.982E-01    0.540E-01
DAV:   8    -0.538210486908E+02    0.17832E-02   -0.31919E-02   260   0.963E-01    0.458E-01
DAV:   9    -0.538189639787E+02    0.20847E-02   -0.25688E-02   220   0.877E-01    0.319E-01
DAV:  10    -0.538180604528E+02    0.90353E-03   -0.10756E-02   220   0.486E-01    0.127E-01
DAV:  11    -0.538175220104E+02    0.53844E-03   -0.25294E-03   180   0.257E-01    0.872E-02
DAV:  12    -0.538174571820E+02    0.64828E-04   -0.54687E-04   140   0.147E-01
   8 F= -.53817457E+02 E0= -.53685697E+02  d E =-.233791E+00
 summed vel is now  0.000000000000000E+000  0.000000000000000E+000
 -1.951563910473908E-018
quench:  g(F)=  0.426E-01 g(S)=  0.000E+00 dE (1.order)=-0.297E+00
 bond charge predicted
       N       E                     dE             d eps       ncg     rms          rms(c)
DAV:   1    -0.538590101641E+02   -0.41488E-01   -0.12153E+02   160   0.325E+01    0.268E+00
DAV:   2    -0.554057844615E+02   -0.15468E+01   -0.14587E+01   240   0.182E+01    0.893E+00
DAV:   3    -0.542240382840E+02    0.11817E+01   -0.64259E+00   260   0.131E+01    0.280E+00
DAV:   4    -0.541231809037E+02    0.10086E+00   -0.94970E-01   240   0.450E+00    0.148E+00
DAV:   5    -0.541139324252E+02    0.92485E-02   -0.27383E-01   220   0.201E+00    0.128E+00
DAV:   6    -0.541050430946E+02    0.88893E-02   -0.17637E-01   240   0.149E+00    0.972E-01
DAV:   7    -0.541016609064E+02    0.33822E-02   -0.89103E-02   220   0.110E+00    0.807E-01
DAV:   8    -0.540989110177E+02    0.27499E-02   -0.60394E-02   260   0.121E+00    0.635E-01
DAV:   9    -0.540948525068E+02    0.40585E-02   -0.40616E-02   220   0.106E+00    0.379E-01
DAV:  10    -0.540934196276E+02    0.14329E-02   -0.22912E-02   220   0.672E-01    0.243E-01
DAV:  11    -0.540928069196E+02    0.61271E-03   -0.66138E-03   200   0.396E-01    0.153E-01
DAV:  12    -0.540923787417E+02    0.42818E-03   -0.19097E-03   160   0.249E-01    0.694E-02
DAV:  13    -0.540923593378E+02    0.19404E-04   -0.40283E-04   140   0.124E-01
   9 F= -.54092359E+02 E0= -.53956764E+02  d E =-.274902E+00
 summed vel is now -1.387778780781446E-017  0.000000000000000E+000
 -6.938893903907228E-018
quench:  g(F)=  0.422E-01 g(S)=  0.000E+00 dE (1.order)=-0.336E+00
 bond charge predicted
       N       E                     dE             d eps       ncg     rms          rms(c)
DAV:   1    -0.540790370765E+02    0.13342E-01   -0.15577E+02   160   0.374E+01    0.264E+00
DAV:   2    -0.552098243546E+02   -0.11308E+01   -0.12053E+01   240   0.159E+01    0.711E+00
DAV:   3    -0.545669698395E+02    0.64285E+00   -0.40006E+00   260   0.117E+01    0.380E+00
DAV:   4    -0.544566786762E+02    0.11029E+00   -0.19706E+00   260   0.474E+00    0.211E+00
DAV:   5    -0.544204520968E+02    0.36227E-01   -0.45427E-01   220   0.270E+00    0.138E+00
DAV:   6    -0.544091645111E+02    0.11288E-01   -0.19488E-01   220   0.167E+00    0.979E-01
DAV:   7    -0.544075535759E+02    0.16109E-02   -0.13388E-01   220   0.146E+00    0.933E-01
DAV:   8    -0.544022036547E+02    0.53499E-02   -0.10293E-01   220   0.147E+00    0.620E-01
DAV:   9    -0.543990234060E+02    0.31802E-02   -0.69954E-02   220   0.124E+00    0.523E-01
DAV:  10    -0.543972161927E+02    0.18072E-02   -0.29157E-02   220   0.704E-01    0.215E-01
DAV:  11    -0.543958602169E+02    0.13560E-02   -0.73985E-03   220   0.441E-01    0.145E-01
DAV:  12    -0.543957047258E+02    0.15549E-03   -0.20296E-03   160   0.254E-01    0.852E-02
DAV:  13    -0.543956231569E+02    0.81569E-04   -0.80434E-04   140   0.168E-01
  10 F= -.54395623E+02 E0= -.54259391E+02  d E =-.303264E+00
 summed vel is now  0.000000000000000E+000  0.000000000000000E+000
  3.469446951953614E-018
quench:  g(F)=  0.528E-01 g(S)=  0.000E+00 dE (1.order)=-0.375E+00
 bond charge predicted
       N       E                     dE             d eps       ncg     rms          rms(c)
DAV:   1    -0.543906632285E+02    0.50415E-02   -0.15609E+02   160   0.375E+01    0.322E+00
DAV:   2    -0.564737662307E+02   -0.20831E+01   -0.21509E+01   240   0.216E+01    0.102E+01
DAV:   3    -0.549094858557E+02    0.15643E+01   -0.89775E+00   260   0.156E+01    0.399E+00
DAV:   4    -0.547572891203E+02    0.15220E+00   -0.23289E+00   240   0.589E+00    0.278E+00
DAV:   5    -0.547209750654E+02    0.36314E-01   -0.11108E+00   240   0.332E+00    0.212E+00
DAV:   6    -0.546891564595E+02    0.31819E-01   -0.37043E-01   200   0.207E+00    0.995E-01
DAV:   7    -0.546820227439E+02    0.71337E-02   -0.10215E-01   220   0.143E+00    0.773E-01
DAV:   8    -0.546801841673E+02    0.18386E-02   -0.91671E-02   220   0.133E+00    0.730E-01
DAV:   9    -0.546779312434E+02    0.22529E-02   -0.84683E-02   220   0.130E+00    0.566E-01
DAV:  10    -0.546746934167E+02    0.32378E-02   -0.33586E-02   240   0.952E-01    0.276E-01
DAV:  11    -0.546734288204E+02    0.12646E-02   -0.76804E-03   220   0.469E-01    0.152E-01
DAV:  12    -0.546730048493E+02    0.42397E-03   -0.22352E-03   180   0.273E-01    0.931E-02
DAV:  13    -0.546729846790E+02    0.20170E-04   -0.10563E-03   160   0.160E-01    0.770E-02
DAV:  14    -0.546729692131E+02    0.15466E-04   -0.56730E-04   120   0.134E-01
  11 F= -.54672969E+02 E0= -.54536402E+02  d E =-.277346E+00
 summed vel is now -3.469446951953614E-018  0.000000000000000E+000
  6.938893903907228E-018
quench:  g(F)=  0.672E-01 g(S)=  0.000E+00 dE (1.order)=-0.301E+00
 bond charge predicted
       N       E                     dE             d eps       ncg     rms          rms(c)
DAV:   1    -0.547411485636E+02   -0.68164E-01   -0.78265E+01   160   0.266E+01    0.195E+00
DAV:   2    -0.551981395254E+02   -0.45699E+00   -0.43583E+00   220   0.960E+00    0.571E+00
DAV:   3    -0.550015051298E+02    0.19663E+00   -0.49289E+00   240   0.817E+00    0.351E+00
DAV:   4    -0.549145575256E+02    0.86948E-01   -0.14570E+00   260   0.412E+00    0.178E+00
DAV:   5    -0.548908007360E+02    0.23757E-01   -0.47469E-01   200   0.230E+00    0.154E+00
DAV:   6    -0.548781849389E+02    0.12616E-01   -0.26901E-01   220   0.159E+00    0.102E+00
DAV:   7    -0.548728883751E+02    0.52966E-02   -0.10783E-01   220   0.118E+00    0.668E-01
DAV:   8    -0.548682476757E+02    0.46407E-02   -0.50136E-02   200   0.101E+00    0.362E-01
DAV:   9    -0.548672483896E+02    0.99929E-03   -0.23217E-02   240   0.805E-01    0.287E-01
DAV:  10    -0.548661902616E+02    0.10581E-02   -0.80924E-03   240   0.488E-01    0.113E-01
DAV:  11    -0.548658969892E+02    0.29327E-03   -0.24403E-03   180   0.268E-01    0.940E-02
DAV:  12    -0.548658950212E+02    0.19680E-05   -0.15056E-03   140   0.183E-01    0.737E-02
DAV:  13    -0.548658935741E+02    0.14472E-05   -0.62981E-04   100   0.135E-01
  12 F= -.54865894E+02 E0= -.54738378E+02  d E =-.192924E+00
 summed vel is now  0.000000000000000E+000  0.000000000000000E+000
  2.602085213965211E-018
quench:  g(F)=  0.438E-01 g(S)=  0.000E+00 dE (1.order)=-0.178E+00
 bond charge predicted
       N       E                     dE             d eps       ncg     rms          rms(c)
DAV:   1    -0.549512987236E+02   -0.85404E-01   -0.42112E+01   160   0.193E+01    0.154E+00
DAV:   2    -0.554142898886E+02   -0.46299E+00   -0.44604E+00   260   0.993E+00    0.563E+00
DAV:   3    -0.550926367662E+02    0.32165E+00   -0.36353E+00   280   0.746E+00    0.282E+00
DAV:   4    -0.550334515185E+02    0.59185E-01   -0.99107E-01   220   0.312E+00    0.153E+00
DAV:   5    -0.550173673119E+02    0.16084E-01   -0.32555E-01   220   0.182E+00    0.944E-01
DAV:   6    -0.550094023605E+02    0.79650E-02   -0.83133E-02   220   0.109E+00    0.447E-01
DAV:   7    -0.550071958024E+02    0.22066E-02   -0.23678E-02   220   0.814E-01    0.371E-01
DAV:   8    -0.550063331823E+02    0.86262E-03   -0.20390E-02   220   0.773E-01    0.317E-01
DAV:   9    -0.550052757320E+02    0.10575E-02   -0.14719E-02   220   0.615E-01    0.186E-01
DAV:  10    -0.550049200624E+02    0.35567E-03   -0.56455E-03   200   0.342E-01    0.130E-01
DAV:  11    -0.550047274214E+02    0.19264E-03   -0.14583E-03   100   0.191E-01    0.567E-02
DAV:  12    -0.550046734744E+02    0.53947E-04   -0.30562E-04   100   0.116E-01
  13 F= -.55004673E+02 E0= -.54879100E+02  d E =-.138780E+00
 summed vel is now  1.387778780781446E-017  3.469446951953614E-018
 -6.938893903907228E-018
quench:  g(F)=  0.262E-01 g(S)=  0.000E+00 dE (1.order)=-0.149E+00
 bond charge predicted
       N       E                     dE             d eps       ncg     rms          rms(c)
DAV:   1    -0.550534085339E+02   -0.48681E-01   -0.49237E+01   160   0.209E+01    0.150E+00
DAV:   2    -0.553096726042E+02   -0.25626E+00   -0.25549E+00   240   0.853E+00    0.383E+00
DAV:   3    -0.552174338370E+02    0.92239E-01   -0.22974E+00   240   0.618E+00    0.308E+00
DAV:   4    -0.551486899708E+02    0.68744E-01   -0.10002E+00   220   0.293E+00    0.120E+00
DAV:   5    -0.551358271479E+02    0.12863E-01   -0.18228E-01   220   0.153E+00    0.741E-01
DAV:   6    -0.551317183270E+02    0.41088E-02   -0.74205E-02   240   0.115E+00    0.581E-01
DAV:   7    -0.551316729744E+02    0.45353E-04   -0.69235E-02   220   0.965E-01    0.631E-01
DAV:   8    -0.551281573898E+02    0.35156E-02   -0.42768E-02   220   0.892E-01    0.256E-01
DAV:   9    -0.551268225779E+02    0.13348E-02   -0.12136E-02   220   0.585E-01    0.180E-01
DAV:  10    -0.551265507182E+02    0.27186E-03   -0.47608E-03   180   0.329E-01    0.102E-01
DAV:  11    -0.551263602691E+02    0.19045E-03   -0.12389E-03   100   0.197E-01    0.576E-02
DAV:  12    -0.551263348086E+02    0.25461E-04   -0.37748E-04   140   0.119E-01
  14 F= -.55126335E+02 E0= -.55008458E+02  d E =-.121661E+00
 summed vel is now -3.469446951953614E-018 -1.734723475976807E-018
  0.000000000000000E+000
quench:  g(F)=  0.150E-01 g(S)=  0.000E+00 dE (1.order)=-0.123E+00
 bond charge predicted
       N       E                     dE             d eps       ncg     rms          rms(c)
DAV:   1    -0.551215397061E+02    0.48206E-02   -0.58470E+01   160   0.230E+01    0.164E+00
DAV:   2    -0.555081149695E+02   -0.38658E+00   -0.36421E+00   240   0.104E+01    0.476E+00
DAV:   3    -0.553178005079E+02    0.19031E+00   -0.32350E+00   260   0.730E+00    0.324E+00
DAV:   4    -0.552382509801E+02    0.79550E-01   -0.11864E+00   260   0.332E+00    0.145E+00
DAV:   5    -0.552262858703E+02    0.11965E-01   -0.29290E-01   220   0.175E+00    0.104E+00
DAV:   6    -0.552161562994E+02    0.10130E-01   -0.10766E-01   220   0.124E+00    0.505E-01
DAV:   7    -0.552154366584E+02    0.71964E-03   -0.34078E-02   220   0.101E+00    0.524E-01
DAV:   8    -0.552126733269E+02    0.27633E-02   -0.29773E-02   240   0.984E-01    0.302E-01
DAV:   9    -0.552112900008E+02    0.13833E-02   -0.11161E-02   220   0.626E-01    0.153E-01
DAV:  10    -0.552110215343E+02    0.26847E-03   -0.31461E-03   180   0.296E-01    0.102E-01
DAV:  11    -0.552108790527E+02    0.14248E-03   -0.10341E-03   100   0.187E-01    0.567E-02
DAV:  12    -0.552108806249E+02   -0.15722E-05   -0.49781E-04   140   0.120E-01
  15 F= -.55210881E+02 E0= -.55097105E+02  d E =-.845458E-01
 summed vel is now  0.000000000000000E+000 -1.734723475976807E-018
 -3.469446951953614E-018
quench:  g(F)=  0.115E-01 g(S)=  0.000E+00 dE (1.order)=-0.670E-01
 bond charge predicted
       N       E                     dE             d eps       ncg     rms          rms(c)
DAV:   1    -0.552229668904E+02   -0.12088E-01   -0.22791E+01   160   0.143E+01    0.111E+00
DAV:   2    -0.553729640554E+02   -0.15000E+00   -0.14116E+00   260   0.573E+00    0.324E+00
DAV:   3    -0.552798805889E+02    0.93083E-01   -0.13169E+00   220   0.505E+00    0.173E+00
DAV:   4    -0.552575712233E+02    0.22309E-01   -0.36199E-01   220   0.214E+00    0.901E-01
DAV:   5    -0.552533088987E+02    0.42623E-02   -0.14929E-01   220   0.113E+00    0.849E-01
DAV:   6    -0.552489474539E+02    0.43614E-02   -0.78407E-02   220   0.863E-01    0.453E-01
DAV:   7    -0.552470649068E+02    0.18825E-02   -0.21207E-02   220   0.687E-01    0.310E-01
DAV:   8    -0.552458339761E+02    0.12309E-02   -0.95347E-03   220   0.536E-01    0.194E-01
DAV:   9    -0.552452893738E+02    0.54460E-03   -0.60916E-03   200   0.425E-01    0.111E-01
DAV:  10    -0.552451015681E+02    0.18781E-03   -0.18015E-03   120   0.238E-01    0.569E-02
DAV:  11    -0.552450625648E+02    0.39003E-04   -0.41043E-04   100   0.128E-01
  16 F= -.55245063E+02 E0= -.55135515E+02  d E =-.341819E-01
 summed vel is now  0.000000000000000E+000  4.336808689942018E-019
  4.336808689942018E-019
quench:  g(F)=  0.999E-02 g(S)=  0.000E+00 dE (1.order)=-0.227E-01
 bond charge predicted
       N       E                     dE             d eps       ncg     rms          rms(c)
DAV:   1    -0.552597975593E+02   -0.14696E-01   -0.29315E+00   160   0.515E+00    0.309E-01
DAV:   2    -0.552750397643E+02   -0.15242E-01   -0.12680E-01   260   0.171E+00    0.965E-01
DAV:   3    -0.552672829058E+02    0.77569E-02   -0.10427E-01   220   0.144E+00    0.501E-01
DAV:   4    -0.552652930731E+02    0.19898E-02   -0.38954E-02   220   0.642E-01    0.337E-01
DAV:   5    -0.552645220696E+02    0.77100E-03   -0.16746E-02   220   0.389E-01    0.266E-01
DAV:   6    -0.552638194461E+02    0.70262E-03   -0.69609E-03   180   0.317E-01    0.132E-01
DAV:   7    -0.552635482049E+02    0.27124E-03   -0.22130E-03   160   0.251E-01    0.109E-01
DAV:   8    -0.552633896444E+02    0.15856E-03   -0.10849E-03   100   0.200E-01    0.578E-02
DAV:   9    -0.552633325799E+02    0.57064E-04   -0.43755E-04   100   0.138E-01
  17 F= -.55263333E+02 E0= -.55153492E+02  d E =-.182700E-01
 summed vel is now  2.168404344971009E-019 -4.336808689942018E-019
 -1.734723475976807E-018
quench:  g(F)=  0.499E-02 g(S)=  0.000E+00 dE (1.order)=-0.237E-01
 bond charge predicted
       N       E                     dE             d eps       ncg     rms          rms(c)
DAV:   1    -0.552764165451E+02   -0.13027E-01   -0.63817E+00   160   0.763E+00    0.410E-01
DAV:   2    -0.552976148632E+02   -0.21198E-01   -0.18652E-01   240   0.220E+00    0.100E+00
DAV:   3    -0.552918176460E+02    0.57972E-02   -0.14921E-01   200   0.166E+00    0.787E-01
DAV:   4    -0.552885149109E+02    0.33027E-02   -0.80713E-02   220   0.836E-01    0.449E-01
DAV:   5    -0.552869577531E+02    0.15572E-02   -0.26754E-02   220   0.537E-01    0.341E-01
DAV:   6    -0.552857192066E+02    0.12385E-02   -0.12355E-02   200   0.426E-01    0.172E-01
DAV:   7    -0.552853861403E+02    0.33307E-03   -0.63265E-03   220   0.358E-01    0.191E-01
DAV:   8    -0.552849581727E+02    0.42797E-03   -0.38661E-03   180   0.318E-01    0.623E-02
DAV:   9    -0.552848161159E+02    0.14206E-03   -0.66919E-04   100   0.143E-01    0.384E-02
DAV:  10    -0.552848098891E+02    0.62268E-05   -0.20543E-04   140   0.883E-02
  18 F= -.55284810E+02 E0= -.55175568E+02  d E =-.214773E-01
 summed vel is now  5.204170427930421E-018 -4.336808689942018E-019
  0.000000000000000E+000
quench:  g(F)=  0.417E-02 g(S)=  0.000E+00 dE (1.order)=-0.279E-01
 bond charge predicted
       N       E                     dE             d eps       ncg     rms          rms(c)
DAV:   1    -0.552976696742E+02   -0.12854E-01   -0.10687E+01   160   0.985E+00    0.587E-01
DAV:   2    -0.553343581245E+02   -0.36688E-01   -0.36096E-01   240   0.317E+00    0.123E+00
DAV:   3    -0.553168799666E+02    0.17478E-01   -0.17702E-01   200   0.242E+00    0.569E-01
DAV:   4    -0.553146451060E+02    0.22349E-02   -0.58101E-02   220   0.877E-01    0.508E-01
DAV:   5    -0.553130545784E+02    0.15905E-02   -0.31994E-02   220   0.605E-01    0.359E-01
DAV:   6    -0.553123465780E+02    0.70800E-03   -0.20936E-02   200   0.490E-01    0.330E-01
DAV:   7    -0.553121437500E+02    0.20283E-03   -0.19921E-02   220   0.466E-01    0.305E-01
DAV:   8    -0.553111655755E+02    0.97817E-03   -0.99353E-03   220   0.406E-01    0.139E-01
DAV:   9    -0.553107261387E+02    0.43944E-03   -0.26577E-03   180   0.262E-01    0.548E-02
DAV:  10    -0.553106468955E+02    0.79243E-04   -0.49746E-04   100   0.117E-01
  19 F= -.55310647E+02 E0= -.55203186E+02  d E =-.258370E-01
 summed vel is now  8.673617379884035E-019 -1.734723475976807E-018
  5.204170427930421E-018
quench:  g(F)=  0.361E-02 g(S)=  0.000E+00 dE (1.order)=-0.310E-01
 bond charge predicted
       N       E                     dE             d eps       ncg     rms          rms(c)
DAV:   1    -0.553163982088E+02   -0.56721E-02   -0.15011E+01   160   0.117E+01    0.589E-01
DAV:   2    -0.553604213740E+02   -0.44023E-01   -0.40942E-01   240   0.320E+00    0.136E+00
DAV:   3    -0.553491471714E+02    0.11274E-01   -0.27226E-01   180   0.231E+00    0.956E-01
DAV:   4    -0.553443930175E+02    0.47542E-02   -0.13534E-01   220   0.112E+00    0.656E-01
DAV:   5    -0.553418073097E+02    0.25857E-02   -0.57819E-02   220   0.741E-01    0.486E-01
DAV:   6    -0.553399365232E+02    0.18708E-02   -0.30445E-02   220   0.616E-01    0.307E-01
DAV:   7    -0.553393663736E+02    0.57015E-03   -0.17280E-02   220   0.547E-01    0.304E-01
DAV:   8    -0.553383288766E+02    0.10375E-02   -0.95942E-03   220   0.494E-01    0.130E-01
DAV:   9    -0.553379106400E+02    0.41824E-03   -0.22268E-03   180   0.262E-01    0.634E-02
DAV:  10    -0.553378607542E+02    0.49886E-04   -0.57618E-04   140   0.130E-01
  20 F= -.55337861E+02 E0= -.55231449E+02  d E =-.272139E-01
 summed vel is now  0.000000000000000E+000  2.168404344971009E-019
  1.734723475976807E-018
quench:  g(F)=  0.356E-02 g(S)=  0.000E+00 dE (1.order)=-0.304E-01
 bond charge predicted
       N       E                     dE             d eps       ncg     rms          rms(c)
DAV:   1    -0.553417596744E+02   -0.38490E-02   -0.14902E+01   160   0.116E+01    0.736E-01
DAV:   2    -0.554147180799E+02   -0.72958E-01   -0.64942E-01   240   0.414E+00    0.215E+00
DAV:   3    -0.553735412575E+02    0.41177E-01   -0.54241E-01   220   0.338E+00    0.104E+00
DAV:   4    -0.553655748639E+02    0.79664E-02   -0.14835E-01   220   0.134E+00    0.666E-01
DAV:   5    -0.553631580238E+02    0.24168E-02   -0.65593E-02   220   0.816E-01    0.551E-01
DAV:   6    -0.553611669712E+02    0.19911E-02   -0.39856E-02   220   0.619E-01    0.349E-01
DAV:   7    -0.553601268395E+02    0.10401E-02   -0.16610E-02   220   0.507E-01    0.258E-01
DAV:   8    -0.553591322540E+02    0.99459E-03   -0.74250E-03   220   0.437E-01    0.155E-01
DAV:   9    -0.553587386819E+02    0.39357E-03   -0.31680E-03   200   0.322E-01    0.651E-02
DAV:  10    -0.553586352424E+02    0.10344E-03   -0.66439E-04   100   0.141E-01    0.426E-02
DAV:  11    -0.553586196316E+02    0.15611E-04   -0.21969E-04   100   0.970E-02
  21 F= -.55358620E+02 E0= -.55254314E+02  d E =-.207589E-01
 summed vel is now  0.000000000000000E+000  0.000000000000000E+000
 -1.734723475976807E-018
quench:  g(F)=  0.521E-02 g(S)=  0.000E+00 dE (1.order)=-0.218E-01
 bond charge predicted
       N       E                     dE             d eps       ncg     rms          rms(c)
DAV:   1    -0.553662156391E+02   -0.75804E-02   -0.52213E+00   160   0.689E+00    0.406E-01
DAV:   2    -0.553940666908E+02   -0.27851E-01   -0.25239E-01   240   0.226E+00    0.135E+00
DAV:   3    -0.553791324246E+02    0.14934E-01   -0.19854E-01   200   0.191E+00    0.639E-01
DAV:   4    -0.553758221826E+02    0.33102E-02   -0.62523E-02   220   0.840E-01    0.442E-01
DAV:   5    -0.553744380418E+02    0.13841E-02   -0.28103E-02   220   0.511E-01    0.323E-01
DAV:   6    -0.553734350933E+02    0.10029E-02   -0.10155E-02   200   0.388E-01    0.157E-01
DAV:   7    -0.553729101063E+02    0.52499E-03   -0.35888E-03   200   0.318E-01    0.129E-01
DAV:   8    -0.553726892665E+02    0.22084E-03   -0.17712E-03   160   0.259E-01    0.812E-02
DAV:   9    -0.553725800080E+02    0.10926E-03   -0.65222E-04   100   0.157E-01    0.292E-02
DAV:  10    -0.553725722950E+02    0.77130E-05   -0.14966E-04   100   0.705E-02
  22 F= -.55372572E+02 E0= -.55268326E+02  d E =-.139527E-01
 summed vel is now -8.673617379884035E-019  8.673617379884035E-019
 -8.673617379884035E-019
quench:  g(F)=  0.308E-02 g(S)=  0.000E+00 dE (1.order)=-0.122E-01
 bond charge predicted
       N       E                     dE             d eps       ncg     rms          rms(c)
DAV:   1    -0.553802595526E+02   -0.76795E-02   -0.27996E+00   160   0.502E+00    0.303E-01
DAV:   2    -0.553930669943E+02   -0.12807E-01   -0.10811E-01   240   0.171E+00    0.878E-01
DAV:   3    -0.553869274931E+02    0.61395E-02   -0.79500E-02   220   0.136E+00    0.475E-01
DAV:   4    -0.553851555284E+02    0.17720E-02   -0.30070E-02   220   0.539E-01    0.314E-01
DAV:   5    -0.553842859282E+02    0.86960E-03   -0.12941E-02   180   0.371E-01    0.198E-01
DAV:   6    -0.553837467459E+02    0.53918E-03   -0.57872E-03   140   0.271E-01    0.137E-01
DAV:   7    -0.553835272408E+02    0.21951E-03   -0.25384E-03   100   0.237E-01    0.107E-01
DAV:   8    -0.553834066409E+02    0.12060E-03   -0.15571E-03   180   0.210E-01    0.659E-02
DAV:   9    -0.553833377561E+02    0.68885E-04   -0.43172E-04   100   0.133E-01
  23 F= -.55383338E+02 E0= -.55279944E+02  d E =-.107655E-01
 summed vel is now -4.336808689942018E-019 -8.673617379884035E-019
 -6.505213034913027E-019
quench:  g(F)=  0.270E-02 g(S)=  0.000E+00 dE (1.order)=-0.150E-01
 bond charge predicted
       N       E                     dE             d eps       ncg     rms          rms(c)
DAV:   1    -0.553911598369E+02   -0.77532E-02   -0.47529E+00   160   0.653E+00    0.305E-01
DAV:   2    -0.554023334322E+02   -0.11174E-01   -0.11124E-01   240   0.150E+00    0.617E-01
DAV:   3    -0.554013670156E+02    0.96642E-03   -0.61291E-02   200   0.999E-01    0.507E-01
DAV:   4    -0.554001508128E+02    0.12162E-02   -0.34150E-02   220   0.590E-01    0.354E-01
DAV:   5    -0.553989674573E+02    0.11834E-02   -0.14429E-02   200   0.424E-01    0.225E-01
DAV:   6    -0.553984433486E+02    0.52411E-03   -0.71237E-03   200   0.336E-01    0.190E-01
DAV:   7    -0.553981596508E+02    0.28370E-03   -0.50800E-03   220   0.320E-01    0.150E-01
DAV:   8    -0.553977812607E+02    0.37839E-03   -0.18323E-03   160   0.256E-01    0.496E-02
DAV:   9    -0.553977058258E+02    0.75435E-04   -0.26978E-04   100   0.111E-01
  24 F= -.55397706E+02 E0= -.55295203E+02  d E =-.143681E-01
 summed vel is now -6.071532165918825E-018  8.673617379884035E-019
 -8.673617379884035E-019
quench:  g(F)=  0.264E-02 g(S)=  0.000E+00 dE (1.order)=-0.194E-01
 bond charge predicted
       N       E                     dE             d eps       ncg     rms          rms(c)
DAV:   1    -0.554060641395E+02   -0.82829E-02   -0.81637E+00   160   0.854E+00    0.459E-01
DAV:   2    -0.554331700037E+02   -0.27106E-01   -0.25552E-01   240   0.248E+00    0.118E+00
DAV:   3    -0.554242286807E+02    0.89413E-02   -0.17200E-01   220   0.182E+00    0.802E-01
DAV:   4    -0.554210776483E+02    0.31510E-02   -0.77379E-02   220   0.839E-01    0.506E-01
DAV:   5    -0.554185215275E+02    0.25561E-02   -0.24628E-02   220   0.564E-01    0.213E-01
DAV:   6    -0.554174858628E+02    0.10357E-02   -0.71613E-03   220   0.413E-01    0.174E-01
DAV:   7    -0.554170685734E+02    0.41729E-03   -0.43969E-03   220   0.348E-01    0.124E-01
DAV:   8    -0.554168500214E+02    0.21855E-03   -0.22297E-03   120   0.268E-01    0.869E-02
DAV:   9    -0.554167861663E+02    0.63855E-04   -0.98357E-04   100   0.140E-01
  25 F= -.55416786E+02 E0= -.55315882E+02  d E =-.190803E-01
 summed vel is now -4.336808689942018E-019 -1.517883041479706E-018
 -1.761828530288945E-018
quench:  g(F)=  0.287E-02 g(S)=  0.000E+00 dE (1.order)=-0.245E-01
 bond charge predicted
       N       E                     dE             d eps       ncg     rms          rms(c)
DAV:   1    -0.554224442596E+02   -0.55942E-02   -0.11986E+01   160   0.104E+01    0.514E-01
DAV:   2    -0.554544089598E+02   -0.31965E-01   -0.32538E-01   240   0.263E+00    0.108E+00
DAV:   3    -0.554474374964E+02    0.69715E-02   -0.17205E-01   220   0.187E+00    0.679E-01
DAV:   4    -0.554433549986E+02    0.40825E-02   -0.54831E-02   220   0.901E-01    0.405E-01
DAV:   5    -0.554416267425E+02    0.17283E-02   -0.24380E-02   220   0.597E-01    0.337E-01
DAV:   6    -0.554416853097E+02   -0.58567E-04   -0.22368E-02   220   0.475E-01    0.401E-01
DAV:   7    -0.554410634015E+02    0.62191E-03   -0.17781E-02   220   0.503E-01    0.258E-01
DAV:   8    -0.554398978857E+02    0.11655E-02   -0.57814E-03   220   0.436E-01    0.891E-02
DAV:   9    -0.554396482100E+02    0.24968E-03   -0.82288E-04   120   0.178E-01    0.379E-02
DAV:  10    -0.554396282973E+02    0.19913E-04   -0.19536E-04   100   0.942E-02
  26 F= -.55439628E+02 E0= -.55340374E+02  d E =-.228421E-01
 summed vel is now  1.734723475976807E-018 -9.757819552369540E-019
  1.734723475976807E-018
quench:  g(F)=  0.348E-02 g(S)=  0.000E+00 dE (1.order)=-0.282E-01
 bond charge predicted
       N       E                     dE             d eps       ncg     rms          rms(c)
DAV:   1    -0.554457252705E+02   -0.60771E-02   -0.13215E+01   160   0.109E+01    0.695E-01
DAV:   2    -0.555219477884E+02   -0.76223E-01   -0.66917E-01   240   0.390E+00    0.242E+00
DAV:   3    -0.554758369600E+02    0.46111E-01   -0.64368E-01   220   0.318E+00    0.114E+00
DAV:   4    -0.554690302409E+02    0.68067E-02   -0.15605E-01   220   0.127E+00    0.669E-01
DAV:   5    -0.554653012539E+02    0.37290E-02   -0.56957E-02   220   0.800E-01    0.460E-01
DAV:   6    -0.554633684166E+02    0.19328E-02   -0.27203E-02   220   0.583E-01    0.277E-01
DAV:   7    -0.554624608664E+02    0.90755E-03   -0.10827E-02   220   0.530E-01    0.215E-01
DAV:   8    -0.554616183021E+02    0.84256E-03   -0.51419E-03   220   0.432E-01    0.103E-01
DAV:   9    -0.554614348060E+02    0.18350E-03   -0.14268E-03   140   0.223E-01    0.482E-02
DAV:  10    -0.554613964605E+02    0.38345E-04   -0.31946E-04   140   0.101E-01
  27 F= -.55461396E+02 E0= -.55364235E+02  d E =-.217682E-01
 summed vel is now  0.000000000000000E+000 -8.673617379884035E-019
  8.673617379884035E-019
quench:  g(F)=  0.504E-02 g(S)=  0.000E+00 dE (1.order)=-0.255E-01
 bond charge predicted
       N       E                     dE             d eps       ncg     rms          rms(c)
DAV:   1    -0.554694452901E+02   -0.80105E-02   -0.73889E+00   160   0.820E+00    0.481E-01
DAV:   2    -0.555023634767E+02   -0.32918E-01   -0.31519E-01   240   0.257E+00    0.135E+00
DAV:   3    -0.554859962593E+02    0.16367E-01   -0.21985E-01   220   0.215E+00    0.668E-01
DAV:   4    -0.554812220356E+02    0.47742E-02   -0.55136E-02   220   0.959E-01    0.326E-01
DAV:   5    -0.554803112578E+02    0.91078E-03   -0.21928E-02   220   0.511E-01    0.393E-01
DAV:   6    -0.554795700442E+02    0.74121E-03   -0.15467E-02   220   0.392E-01    0.207E-01
DAV:   7    -0.554790067431E+02    0.56330E-03   -0.62920E-03   220   0.381E-01    0.172E-01
DAV:   8    -0.554785902716E+02    0.41647E-03   -0.30508E-03   180   0.330E-01    0.862E-02
DAV:   9    -0.554784080867E+02    0.18218E-03   -0.77629E-04   100   0.168E-01    0.431E-02
DAV:  10    -0.554783970761E+02    0.11011E-04   -0.26072E-04   100   0.989E-02
  28 F= -.55478397E+02 E0= -.55381986E+02  d E =-.170006E-01
 summed vel is now -3.469446951953614E-018  0.000000000000000E+000
 -8.673617379884035E-019
quench:  g(F)=  0.426E-02 g(S)=  0.000E+00 dE (1.order)=-0.170E-01
 bond charge predicted
       N       E                     dE             d eps       ncg     rms          rms(c)
DAV:   1    -0.554883209218E+02   -0.99128E-02   -0.39113E+00   160   0.594E+00    0.376E-01
DAV:   2    -0.555107783701E+02   -0.22457E-01   -0.19539E-01   240   0.205E+00    0.132E+00
DAV:   3    -0.554984216265E+02    0.12357E-01   -0.19487E-01   240   0.174E+00    0.688E-01
DAV:   4    -0.554952495027E+02    0.31721E-02   -0.52324E-02   220   0.739E-01    0.346E-01
DAV:   5    -0.554938385843E+02    0.14109E-02   -0.17121E-02   220   0.450E-01    0.249E-01
DAV:   6    -0.554931603413E+02    0.67824E-03   -0.78374E-03   180   0.322E-01    0.139E-01
DAV:   7    -0.554928059987E+02    0.35434E-03   -0.29291E-03   200   0.285E-01    0.110E-01
DAV:   8    -0.554925941449E+02    0.21185E-03   -0.12359E-03   120   0.225E-01    0.572E-02
DAV:   9    -0.554925453357E+02    0.48809E-04   -0.42154E-04   140   0.122E-01
  29 F= -.55492545E+02 E0= -.55397406E+02  d E =-.141483E-01
 summed vel is now  8.673617379884035E-019  1.301042606982605E-018
  6.505213034913027E-019
quench:  g(F)=  0.351E-02 g(S)=  0.000E+00 dE (1.order)=-0.184E-01
 bond charge predicted
       N       E                     dE             d eps       ncg     rms          rms(c)
DAV:   1    -0.555025518992E+02   -0.99578E-02   -0.55335E+00   160   0.702E+00    0.349E-01
DAV:   2    -0.555176102334E+02   -0.15058E-01   -0.15404E-01   240   0.173E+00    0.817E-01
DAV:   3    -0.555149696445E+02    0.26406E-02   -0.10284E-01   200   0.122E+00    0.574E-01
DAV:   4    -0.555127217359E+02    0.22479E-02   -0.39439E-02   220   0.685E-01    0.347E-01
DAV:   5    -0.555114166571E+02    0.13051E-02   -0.15265E-02   220   0.441E-01    0.260E-01
DAV:   6    -0.555108437803E+02    0.57288E-03   -0.76455E-03   200   0.338E-01    0.178E-01
DAV:   7    -0.555105942669E+02    0.24951E-03   -0.56103E-03   220   0.351E-01    0.175E-01
DAV:   8    -0.555101126559E+02    0.48161E-03   -0.24695E-03   180   0.301E-01    0.438E-02
DAV:   9    -0.555100113440E+02    0.10131E-03   -0.32207E-04   100   0.112E-01    0.272E-02
DAV:  10    -0.555100132078E+02   -0.18638E-05   -0.97163E-05   140   0.713E-02
  30 F= -.55510013E+02 E0= -.55415967E+02  d E =-.174679E-01
 summed vel is now  1.734723475976807E-018 -8.267041565201971E-019
 -2.602085213965211E-018
quench:  g(F)=  0.345E-02 g(S)=  0.000E+00 dE (1.order)=-0.238E-01
 bond charge predicted
       N       E                     dE             d eps       ncg     rms          rms(c)
DAV:   1    -0.555203940935E+02   -0.10383E-01   -0.93953E+00   160   0.914E+00    0.508E-01
DAV:   2    -0.555574364630E+02   -0.37042E-01   -0.36309E-01   240   0.277E+00    0.156E+00
DAV:   3    -0.555423198561E+02    0.15117E-01   -0.29699E-01   220   0.201E+00    0.931E-01
DAV:   4    -0.555372624480E+02    0.50574E-02   -0.91751E-02   220   0.973E-01    0.445E-01
DAV:   5    -0.555343080685E+02    0.29544E-02   -0.18834E-02   220   0.552E-01    0.204E-01
DAV:   6    -0.555335961532E+02    0.71192E-03   -0.70215E-03   220   0.433E-01    0.202E-01
DAV:   7    -0.555332867863E+02    0.30937E-03   -0.83937E-03   220   0.399E-01    0.206E-01
DAV:   8    -0.555330309816E+02    0.25580E-03   -0.58526E-03   160   0.308E-01    0.108E-01
DAV:   9    -0.555327540439E+02    0.27694E-03   -0.11706E-03   100   0.177E-01    0.397E-02
DAV:  10    -0.555327266561E+02    0.27388E-04   -0.19157E-04   140   0.851E-02
  31 F= -.55532727E+02 E0= -.55440403E+02  d E =-.227134E-01
 summed vel is now  2.168404344971009E-018  5.421010862427522E-020
  4.336808689942018E-019
quench:  g(F)=  0.349E-02 g(S)=  0.000E+00 dE (1.order)=-0.287E-01
 bond charge predicted
       N       E                     dE             d eps       ncg     rms          rms(c)
DAV:   1    -0.555393544007E+02   -0.66004E-02   -0.13524E+01   160   0.110E+01    0.528E-01
DAV:   2    -0.555736150532E+02   -0.34261E-01   -0.35387E-01   240   0.281E+00    0.106E+00
DAV:   3    -0.555676243827E+02    0.59907E-02   -0.18513E-01   220   0.187E+00    0.739E-01
DAV:   4    -0.555630205569E+02    0.46038E-02   -0.63135E-02   220   0.951E-01    0.432E-01
DAV:   5    -0.555613118819E+02    0.17087E-02   -0.27121E-02   240   0.597E-01    0.392E-01
DAV:   6    -0.555607672603E+02    0.54462E-03   -0.21182E-02   220   0.479E-01    0.335E-01
DAV:   7    -0.555604134325E+02    0.35383E-03   -0.15990E-02   220   0.539E-01    0.286E-01
DAV:   8    -0.555591710780E+02    0.12424E-02   -0.68176E-03   220   0.483E-01    0.820E-02
DAV:   9    -0.555588552105E+02    0.31587E-03   -0.10414E-03   140   0.182E-01    0.420E-02
DAV:  10    -0.555588327722E+02    0.22438E-04   -0.18831E-04   140   0.914E-02
  32 F= -.55558833E+02 E0= -.55467903E+02  d E =-.261061E-01
 summed vel is now -1.734723475976807E-018  9.757819552369540E-019
  0.000000000000000E+000
quench:  g(F)=  0.395E-02 g(S)=  0.000E+00 dE (1.order)=-0.311E-01
 bond charge predicted
       N       E                     dE             d eps       ncg     rms          rms(c)
DAV:   1    -0.555636346399E+02   -0.47794E-02   -0.14093E+01   160   0.113E+01    0.698E-01
DAV:   2    -0.556432801099E+02   -0.79645E-01   -0.73076E-01   240   0.397E+00    0.250E+00
DAV:   3    -0.555967030346E+02    0.46577E-01   -0.68701E-01   220   0.314E+00    0.119E+00
DAV:   4    -0.555884959283E+02    0.82071E-02   -0.16162E-01   220   0.129E+00    0.607E-01
DAV:   5    -0.555843041034E+02    0.41918E-02   -0.41799E-02   220   0.754E-01    0.369E-01
DAV:   6    -0.555831949275E+02    0.11092E-02   -0.22737E-02   220   0.554E-01    0.312E-01
DAV:   7    -0.555822360378E+02    0.95889E-03   -0.12910E-02   220   0.540E-01    0.200E-01
DAV:   8    -0.555813681948E+02    0.86784E-03   -0.46682E-03   220   0.429E-01    0.929E-02
DAV:   9    -0.555812152854E+02    0.15291E-03   -0.11338E-03   160   0.205E-01    0.452E-02
DAV:  10    -0.555811798143E+02    0.35471E-04   -0.28186E-04   120   0.968E-02
  33 F= -.55581180E+02 E0= -.55491948E+02  d E =-.223470E-01
 summed vel is now  0.000000000000000E+000  1.626303258728257E-019
  0.000000000000000E+000
quench:  g(F)=  0.534E-02 g(S)=  0.000E+00 dE (1.order)=-0.245E-01
 bond charge predicted
       N       E                     dE             d eps       ncg     rms          rms(c)
DAV:   1    -0.555895025817E+02   -0.82873E-02   -0.64642E+00   160   0.767E+00    0.446E-01
DAV:   2    -0.556203617119E+02   -0.30859E-01   -0.29526E-01   240   0.246E+00    0.134E+00
DAV:   3    -0.556043541652E+02    0.16008E-01   -0.21658E-01   200   0.207E+00    0.692E-01
DAV:   4    -0.556002786944E+02    0.40755E-02   -0.57630E-02   220   0.894E-01    0.373E-01
DAV:   5    -0.555992647956E+02    0.10139E-02   -0.24067E-02   200   0.488E-01    0.358E-01
DAV:   6    -0.555981937285E+02    0.10711E-02   -0.13288E-02   200   0.393E-01    0.164E-01
DAV:   7    -0.555975921504E+02    0.60158E-03   -0.47117E-03   220   0.339E-01    0.135E-01
DAV:   8    -0.555972940400E+02    0.29811E-03   -0.19662E-03   180   0.280E-01    0.559E-02
DAV:   9    -0.555972226957E+02    0.71344E-04   -0.41774E-04   140   0.132E-01
  34 F= -.55597223E+02 E0= -.55508272E+02  d E =-.160429E-01
 summed vel is now -8.673617379884035E-019 -3.252606517456513E-019
  8.673617379884035E-019
quench:  g(F)=  0.364E-02 g(S)=  0.000E+00 dE (1.order)=-0.147E-01
 bond charge predicted
       N       E                     dE             d eps       ncg     rms          rms(c)
DAV:   1    -0.556057055215E+02   -0.84115E-02   -0.33978E+00   160   0.554E+00    0.312E-01
DAV:   2    -0.556205868064E+02   -0.14881E-01   -0.13115E-01   240   0.174E+00    0.996E-01
DAV:   3    -0.556141606656E+02    0.64261E-02   -0.11431E-01   220   0.139E+00    0.556E-01
DAV:   4    -0.556117508484E+02    0.24098E-02   -0.35079E-02   220   0.612E-01    0.286E-01
DAV:   5    -0.556107133481E+02    0.10375E-02   -0.11050E-02   200   0.369E-01    0.207E-01
DAV:   6    -0.556102341380E+02    0.47921E-03   -0.58799E-03   140   0.279E-01    0.135E-01
DAV:   7    -0.556099489307E+02    0.28521E-03   -0.26533E-03   220   0.260E-01    0.967E-02
DAV:   8    -0.556097706176E+02    0.17831E-03   -0.94117E-04   140   0.214E-01    0.531E-02
DAV:   9    -0.556097296601E+02    0.40958E-04   -0.35105E-04   120   0.111E-01
  35 F= -.55609730E+02 E0= -.55521589E+02  d E =-.125070E-01
 summed vel is now  1.084202172485504E-018  5.421010862427522E-020
  2.168404344971009E-019
quench:  g(F)=  0.295E-02 g(S)=  0.000E+00 dE (1.order)=-0.162E-01
 bond charge predicted
       N       E                     dE             d eps       ncg     rms          rms(c)
DAV:   1    -0.556179822466E+02   -0.82116E-02   -0.50886E+00   160   0.673E+00    0.309E-01
DAV:   2    -0.556308259248E+02   -0.12844E-01   -0.13012E-01   240   0.160E+00    0.704E-01
DAV:   3    -0.556289326260E+02    0.18933E-02   -0.77132E-02   200   0.106E+00    0.478E-01
DAV:   4    -0.556270173130E+02    0.19153E-02   -0.25624E-02   220   0.586E-01    0.278E-01
DAV:   5    -0.556261909439E+02    0.82637E-03   -0.10868E-02   200   0.371E-01    0.243E-01
DAV:   6    -0.556257423678E+02    0.44858E-03   -0.66694E-03   180   0.306E-01    0.167E-01
DAV:   7    -0.556254504721E+02    0.29190E-03   -0.47551E-03   220   0.327E-01    0.155E-01
DAV:   8    -0.556250702147E+02    0.38026E-03   -0.18776E-03   140   0.276E-01    0.415E-02
DAV:   9    -0.556249881609E+02    0.82054E-04   -0.30358E-04   140   0.107E-01
  36 F= -.55624988E+02 E0= -.55537329E+02  d E =-.152585E-01
 summed vel is now -1.301042606982605E-018  1.084202172485504E-018
  8.673617379884035E-019
quench:  g(F)=  0.271E-02 g(S)=  0.000E+00 dE (1.order)=-0.199E-01
 bond charge predicted
       N       E                     dE             d eps       ncg     rms          rms(c)
DAV:   1    -0.556324246913E+02   -0.73545E-02   -0.83067E+00   160   0.861E+00    0.451E-01
DAV:   2    -0.556641819736E+02   -0.31757E-01   -0.30930E-01   240   0.256E+00    0.146E+00
DAV:   3    -0.556513658462E+02    0.12816E-01   -0.24519E-01   220   0.178E+00    0.803E-01
DAV:   4    -0.556472055854E+02    0.41603E-02   -0.64930E-02   220   0.862E-01    0.362E-01
DAV:   5    -0.556449449779E+02    0.22606E-02   -0.12090E-02   220   0.472E-01    0.183E-01
DAV:   6    -0.556446559144E+02    0.28906E-03   -0.88775E-03   220   0.425E-01    0.267E-01
DAV:   7    -0.556445885243E+02    0.67390E-04   -0.14715E-02   260   0.452E-01    0.245E-01
DAV:   8    -0.556439287689E+02    0.65976E-03   -0.62736E-03   180   0.354E-01    0.723E-02
DAV:   9    -0.556436615477E+02    0.26722E-03   -0.70217E-04   100   0.147E-01    0.358E-02
DAV:  10    -0.556436512646E+02    0.10283E-04   -0.17705E-04   140   0.802E-02
  37 F= -.55643651E+02 E0= -.55556793E+02  d E =-.186631E-01
 summed vel is now  2.168404344971009E-018  4.336808689942018E-019
  3.035766082959412E-018
quench:  g(F)=  0.260E-02 g(S)=  0.000E+00 dE (1.order)=-0.226E-01
 bond charge predicted
       N       E                     dE             d eps       ncg     rms          rms(c)
DAV:   1    -0.556470443762E+02   -0.33828E-02   -0.11206E+01   160   0.100E+01    0.458E-01
DAV:   2    -0.556766724422E+02   -0.29628E-01   -0.29742E-01   240   0.248E+00    0.103E+00
DAV:   3    -0.556699956416E+02    0.66768E-02   -0.15161E-01   200   0.172E+00    0.624E-01
DAV:   4    -0.556662630002E+02    0.37326E-02   -0.40549E-02   220   0.764E-01    0.346E-01
DAV:   5    -0.556653243565E+02    0.93864E-03   -0.18359E-02   220   0.448E-01    0.368E-01
DAV:   6    -0.556649735792E+02    0.35078E-03   -0.20112E-02   220   0.474E-01    0.307E-01
DAV:   7    -0.556641803617E+02    0.79322E-03   -0.14896E-02   220   0.505E-01    0.227E-01
DAV:   8    -0.556633893446E+02    0.79102E-03   -0.50522E-03   200   0.403E-01    0.689E-02
DAV:   9    -0.556632102604E+02    0.17908E-03   -0.59010E-04   140   0.157E-01    0.394E-02
DAV:  10    -0.556631995046E+02    0.10756E-04   -0.19703E-04   120   0.935E-02
  38 F= -.55663200E+02 E0= -.55576798E+02  d E =-.195482E-01
 summed vel is now  6.938893903907228E-018  1.084202172485504E-018
  0.000000000000000E+000
quench:  g(F)=  0.292E-02 g(S)=  0.000E+00 dE (1.order)=-0.222E-01
 bond charge predicted
       N       E                     dE             d eps       ncg     rms          rms(c)
DAV:   1    -0.556656178642E+02   -0.24076E-02   -0.96927E+00   160   0.937E+00    0.569E-01
DAV:   2    -0.557211293815E+02   -0.55512E-01   -0.50602E-01   240   0.327E+00    0.213E+00
DAV:   3    -0.556884564176E+02    0.32673E-01   -0.49496E-01   200   0.261E+00    0.999E-01
DAV:   4    -0.556820657843E+02    0.63906E-02   -0.10600E-01   220   0.108E+00    0.459E-01
DAV:   5    -0.556794434024E+02    0.26224E-02   -0.25879E-02   220   0.604E-01    0.314E-01
DAV:   6    -0.556786552128E+02    0.78819E-03   -0.16070E-02   200   0.461E-01    0.261E-01
DAV:   7    -0.556779080122E+02    0.74720E-03   -0.94217E-03   220   0.429E-01    0.164E-01
DAV:   8    -0.556773949082E+02    0.51310E-03   -0.35380E-03   220   0.350E-01    0.846E-02
DAV:   9    -0.556772415402E+02    0.15337E-03   -0.78064E-04   140   0.175E-01    0.341E-02
DAV:  10    -0.556772184088E+02    0.23131E-04   -0.19004E-04   120   0.764E-02
  39 F= -.55677218E+02 E0= -.55591313E+02  d E =-.140189E-01
 summed vel is now -8.673617379884035E-019  2.168404344971009E-019
 -8.673617379884035E-019
quench:  g(F)=  0.395E-02 g(S)=  0.000E+00 dE (1.order)=-0.138E-01
 bond charge predicted
       N       E                     dE             d eps       ncg     rms          rms(c)
DAV:   1    -0.556835550761E+02   -0.63135E-02   -0.27814E+00   160   0.503E+00    0.304E-01
DAV:   2    -0.556992251490E+02   -0.15670E-01   -0.14489E-01   240   0.167E+00    0.104E+00
DAV:   3    -0.556909394239E+02    0.82857E-02   -0.12164E-01   200   0.145E+00    0.513E-01
DAV:   4    -0.556885088231E+02    0.24306E-02   -0.30912E-02   200   0.634E-01    0.257E-01
DAV:   5    -0.556877106388E+02    0.79818E-03   -0.11503E-02   200   0.357E-01    0.232E-01
DAV:   6    -0.556871551293E+02    0.55551E-03   -0.56252E-03   160   0.266E-01    0.102E-01
DAV:   7    -0.556868883994E+02    0.26673E-03   -0.18356E-03   160   0.220E-01    0.834E-02
DAV:   8    -0.556867697662E+02    0.11863E-03   -0.74027E-04   140   0.178E-01    0.378E-02
DAV:   9    -0.556867423717E+02    0.27395E-04   -0.22218E-04   120   0.102E-01
  40 F= -.55686742E+02 E0= -.55600737E+02  d E =-.952396E-02
 summed vel is now -3.035766082959412E-018 -1.301042606982605E-018
 -1.084202172485504E-018
quench:  g(F)=  0.198E-02 g(S)=  0.000E+00 dE (1.order)=-0.933E-02
 bond charge predicted
       N       E                     dE             d eps       ncg     rms          rms(c)
DAV:   1    -0.556920666722E+02   -0.52969E-02   -0.25079E+00   160   0.474E+00    0.211E-01
DAV:   2    -0.556983517526E+02   -0.62851E-02   -0.57977E-02   240   0.117E+00    0.470E-01
DAV:   3    -0.556974618769E+02    0.88988E-03   -0.28732E-02   200   0.751E-01    0.348E-01
DAV:   4    -0.556965872859E+02    0.87459E-03   -0.13638E-02   200   0.378E-01    0.200E-01
DAV:   5    -0.556959121731E+02    0.67511E-03   -0.36205E-03   160   0.244E-01    0.100E-01
DAV:   6    -0.556958777350E+02    0.34438E-04   -0.40112E-03   180   0.254E-01    0.193E-01
DAV:   7    -0.556956917874E+02    0.18595E-03   -0.49307E-03   100   0.259E-01    0.105E-01
DAV:   8    -0.556954689481E+02    0.22284E-03   -0.12401E-03   100   0.190E-01    0.368E-02
DAV:   9    -0.556954363807E+02    0.32567E-04   -0.23032E-04   140   0.814E-02
  41 F= -.55695436E+02 E0= -.55609754E+02  d E =-.869401E-02
 summed vel is now  1.084202172485504E-018 -1.084202172485504E-018
  2.168404344971009E-019
quench:  g(F)=  0.180E-02 g(S)=  0.000E+00 dE (1.order)=-0.121E-01
 bond charge predicted
       N       E                     dE             d eps       ncg     rms          rms(c)
DAV:   1    -0.557000806647E+02   -0.46117E-02   -0.46225E+00   160   0.643E+00    0.271E-01
DAV:   2    -0.557104891972E+02   -0.10409E-01   -0.10211E-01   240   0.146E+00    0.533E-01
DAV:   3    -0.557094457117E+02    0.10435E-02   -0.45573E-02   200   0.878E-01    0.368E-01
DAV:   4    -0.557079318893E+02    0.15138E-02   -0.14301E-02   220   0.461E-01    0.186E-01
DAV:   5    -0.557073879006E+02    0.54399E-03   -0.49671E-03   180   0.315E-01    0.187E-01
DAV:   6    -0.557075281638E+02   -0.14026E-03   -0.85104E-03   240   0.306E-01    0.266E-01
DAV:   7    -0.557071692208E+02    0.35894E-03   -0.76986E-03   220   0.323E-01    0.138E-01
DAV:   8    -0.557067016478E+02    0.46757E-03   -0.18737E-03   140   0.245E-01    0.538E-02
DAV:   9    -0.557066339017E+02    0.67746E-04   -0.32094E-04   100   0.979E-02
  42 F= -.55706634E+02 E0= -.55621060E+02  d E =-.111975E-01
 summed vel is now -6.505213034913027E-018  8.673617379884035E-019
 -2.168404344971009E-019
quench:  g(F)=  0.150E-02 g(S)=  0.000E+00 dE (1.order)=-0.136E-01
 bond charge predicted
       N       E                     dE             d eps       ncg     rms          rms(c)
DAV:   1    -0.557094396149E+02   -0.27380E-02   -0.70675E+00   160   0.796E+00    0.383E-01
DAV:   2    -0.557322229084E+02   -0.22783E-01   -0.22173E-01   240   0.218E+00    0.115E+00
DAV:   3    -0.557248626568E+02    0.73603E-02   -0.15457E-01   200   0.143E+00    0.653E-01
DAV:   4    -0.557218807092E+02    0.29819E-02   -0.41332E-02   220   0.711E-01    0.299E-01
DAV:   5    -0.557202742988E+02    0.16064E-02   -0.76909E-03   220   0.402E-01    0.163E-01
DAV:   6    -0.557197484161E+02    0.52588E-03   -0.41416E-03   260   0.373E-01    0.152E-01
DAV:   7    -0.557195907302E+02    0.15769E-03   -0.52636E-03   200   0.357E-01    0.177E-01
DAV:   8    -0.557193749826E+02    0.21575E-03   -0.36846E-03   100   0.226E-01    0.707E-02
DAV:   9    -0.557192325285E+02    0.14245E-03   -0.62431E-04   100   0.121E-01    0.307E-02
DAV:  10    -0.557192176037E+02    0.14925E-04   -0.15395E-04   140   0.688E-02
  43 F= -.55719218E+02 E0= -.55633864E+02  d E =-.125837E-01
 summed vel is now -4.336808689942018E-019  2.168404344971009E-019
  1.734723475976807E-018
quench:  g(F)=  0.140E-02 g(S)=  0.000E+00 dE (1.order)=-0.145E-01
 bond charge predicted
       N       E                     dE             d eps       ncg     rms          rms(c)
DAV:   1    -0.557182259294E+02    0.10066E-02   -0.85159E+00   160   0.876E+00    0.413E-01
DAV:   2    -0.557472857309E+02   -0.29060E-01   -0.28179E-01   240   0.226E+00    0.125E+00
DAV:   3    -0.557356853534E+02    0.11600E-01   -0.17412E-01   200   0.171E+00    0.540E-01
DAV:   4    -0.557328495872E+02    0.28358E-02   -0.33565E-02   200   0.665E-01    0.332E-01
DAV:   5    -0.557321494024E+02    0.70018E-03   -0.18262E-02   220   0.437E-01    0.343E-01
DAV:   6    -0.557314742049E+02    0.67520E-03   -0.13851E-02   220   0.429E-01    0.216E-01
DAV:   7    -0.557307167671E+02    0.75744E-03   -0.72711E-03   220   0.394E-01    0.152E-01
DAV:   8    -0.557303469542E+02    0.36981E-03   -0.24013E-03   200   0.306E-01    0.562E-02
DAV:   9    -0.557302761836E+02    0.70771E-04   -0.39863E-04   120   0.117E-01
  44 F= -.55730276E+02 E0= -.55644805E+02  d E =-.110586E-01
 summed vel is now  8.673617379884035E-019 -4.336808689942018E-019
 -2.602085213965211E-018
quench:  g(F)=  0.191E-02 g(S)=  0.000E+00 dE (1.order)=-0.116E-01
 bond charge predicted
       N       E                     dE             d eps       ncg     rms          rms(c)
DAV:   1    -0.557315184729E+02   -0.11715E-02   -0.40606E+00   160   0.608E+00    0.392E-01
DAV:   2    -0.557571797649E+02   -0.25661E-01   -0.22566E-01   240   0.220E+00    0.146E+00
DAV:   3    -0.557424713286E+02    0.14708E-01   -0.24548E-01   220   0.186E+00    0.721E-01
DAV:   4    -0.557384292256E+02    0.40421E-02   -0.54688E-02   220   0.816E-01    0.310E-01
DAV:   5    -0.557371747353E+02    0.12545E-02   -0.14703E-02   220   0.440E-01    0.260E-01
DAV:   6    -0.557365528941E+02    0.62184E-03   -0.88703E-03   180   0.329E-01    0.159E-01
DAV:   7    -0.557361699647E+02    0.38293E-03   -0.38009E-03   220   0.272E-01    0.116E-01
DAV:   8    -0.557359337963E+02    0.23617E-03   -0.16101E-03   160   0.229E-01    0.555E-02
DAV:   9    -0.557358543091E+02    0.79487E-04   -0.37500E-04   140   0.137E-01
  45 F= -.55735854E+02 E0= -.55650741E+02  d E =-.557813E-02
 summed vel is now  4.336808689942018E-019 -2.168404344971009E-019
  0.000000000000000E+000
quench:  g(F)=  0.199E-02 g(S)=  0.000E+00 dE (1.order)=-0.365E-02
 bond charge predicted
       N       E                     dE             d eps       ncg     rms          rms(c)
DAV:   1    -0.557384009500E+02   -0.24672E-02   -0.38676E-01   160   0.188E+00    0.115E-01
DAV:   2    -0.557407263548E+02   -0.23254E-02   -0.21077E-02   240   0.628E-01    0.409E-01
DAV:   3    -0.557398117926E+02    0.91456E-03   -0.18837E-02   220   0.561E-01    0.187E-01
DAV:   4    -0.557391239694E+02    0.68782E-03   -0.42589E-03   180   0.257E-01    0.838E-02
DAV:   5    -0.557389703507E+02    0.15362E-03   -0.14232E-03   100   0.136E-01    0.936E-02
DAV:   6    -0.557389134298E+02    0.56921E-04   -0.93672E-04   100   0.118E-01
  46 F= -.55738913E+02 E0= -.55653742E+02  d E =-.305912E-02
 summed vel is now  6.505213034913027E-019  1.084202172485504E-019
  0.000000000000000E+000
quench:  g(F)=  0.102E-02 g(S)=  0.000E+00 dE (1.order)=-0.436E-02
 bond charge predicted
       N       E                     dE             d eps       ncg     rms          rms(c)
DAV:   1    -0.557412717958E+02   -0.23014E-02   -0.10647E+00   160   0.310E+00    0.149E-01
DAV:   2    -0.557447913594E+02   -0.35196E-02   -0.33231E-02   240   0.766E-01    0.432E-01
DAV:   3    -0.557438822819E+02    0.90908E-03   -0.22974E-02   200   0.589E-01    0.197E-01
DAV:   4    -0.557431396402E+02    0.74264E-03   -0.45308E-03   180   0.268E-01    0.117E-01
DAV:   5    -0.557429505943E+02    0.18905E-03   -0.20884E-03   100   0.182E-01    0.127E-01
DAV:   6    -0.557428720191E+02    0.78575E-04   -0.19171E-03   100   0.161E-01    0.884E-02
DAV:   7    -0.557427539159E+02    0.11810E-03   -0.13511E-03   180   0.176E-01    0.581E-02
DAV:   8    -0.557426833028E+02    0.70613E-04   -0.32798E-04   140   0.125E-01
  47 F= -.55742683E+02 E0= -.55657570E+02  d E =-.376987E-02
 summed vel is now -4.553649124439119E-018  1.084202172485504E-018
  2.168404344971009E-019
quench:  g(F)=  0.853E-03 g(S)=  0.000E+00 dE (1.order)=-0.519E-02
 bond charge predicted
       N       E                     dE             d eps       ncg     rms          rms(c)
DAV:   1    -0.557449259474E+02   -0.21720E-02   -0.17992E+00   160   0.402E+00    0.172E-01
DAV:   2    -0.557487291903E+02   -0.38032E-02   -0.35392E-02   240   0.927E-01    0.254E-01
DAV:   3    -0.557481815103E+02    0.54768E-03   -0.76365E-03   220   0.541E-01    0.178E-01
DAV:   4    -0.557480341475E+02    0.14736E-03   -0.49354E-03   100   0.228E-01    0.180E-01
DAV:   5    -0.557477841038E+02    0.25004E-03   -0.29124E-03   100   0.210E-01    0.953E-02
DAV:   6    -0.557475716921E+02    0.21241E-03   -0.18902E-03   200   0.213E-01    0.976E-02
DAV:   7    -0.557475915232E+02   -0.19831E-04   -0.23547E-03   140   0.199E-01    0.122E-01
DAV:   8    -0.557474841925E+02    0.10733E-03   -0.14628E-03   100   0.152E-01    0.361E-02
DAV:   9    -0.557474241636E+02    0.60029E-04   -0.16740E-04   100   0.635E-02
  48 F= -.55747424E+02 E0= -.55662409E+02  d E =-.474086E-02
 summed vel is now  6.505213034913027E-019  2.168404344971009E-019
  0.000000000000000E+000
quench:  g(F)=  0.734E-03 g(S)=  0.000E+00 dE (1.order)=-0.607E-02
 bond charge predicted
       N       E                     dE             d eps       ncg     rms          rms(c)
DAV:   1    -0.557488302741E+02   -0.13461E-02   -0.28618E+00   160   0.507E+00    0.205E-01
DAV:   2    -0.557548328192E+02   -0.60025E-02   -0.58286E-02   240   0.107E+00    0.364E-01
DAV:   3    -0.557546604000E+02    0.17242E-03   -0.23426E-02   240   0.624E-01    0.295E-01
DAV:   4    -0.557537136701E+02    0.94673E-03   -0.84260E-03   180   0.334E-01    0.132E-01
DAV:   5    -0.557533491221E+02    0.36455E-03   -0.24617E-03   120   0.227E-01    0.151E-01
DAV:   6    -0.557534151051E+02   -0.65983E-04   -0.53548E-03   140   0.256E-01    0.204E-01
DAV:   7    -0.557531925801E+02    0.22253E-03   -0.47621E-03   200   0.253E-01    0.871E-02
DAV:   8    -0.557529257303E+02    0.26685E-03   -0.96831E-04   120   0.171E-01    0.356E-02
DAV:   9    -0.557529022132E+02    0.23517E-04   -0.14136E-04   140   0.656E-02
  49 F= -.55752902E+02 E0= -.55667873E+02  d E =-.547805E-02
 summed vel is now  1.301042606982605E-018 -1.301042606982605E-018
  1.301042606982605E-018
quench:  g(F)=  0.614E-03 g(S)=  0.000E+00 dE (1.order)=-0.626E-02
 bond charge predicted
       N       E                     dE             d eps       ncg     rms          rms(c)
DAV:   1    -0.557531507429E+02   -0.22501E-03   -0.36388E+00   160   0.572E+00    0.271E-01
DAV:   2    -0.557629029902E+02   -0.97522E-02   -0.90503E-02   240   0.149E+00    0.605E-01
DAV:   3    -0.557610296160E+02    0.18734E-02   -0.50030E-02   200   0.996E-01    0.452E-01
DAV:   4    -0.557595901291E+02    0.14395E-02   -0.21408E-02   220   0.470E-01    0.231E-01
DAV:   5    -0.557586678200E+02    0.92231E-03   -0.46567E-03   180   0.284E-01    0.121E-01
DAV:   6    -0.557584313528E+02    0.23647E-03   -0.31088E-03   220   0.271E-01    0.159E-01
DAV:   7    -0.557584969462E+02   -0.65593E-04   -0.62609E-03   140   0.291E-01    0.185E-01
DAV:   8    -0.557581842794E+02    0.31267E-03   -0.33728E-03   120   0.235E-01    0.523E-02
DAV:   9    -0.557580547772E+02    0.12950E-03   -0.37777E-04   100   0.103E-01    0.261E-02
DAV:  10    -0.557580448877E+02    0.98895E-05   -0.86685E-05   140   0.617E-02
  50 F= -.55758045E+02 E0= -.55673382E+02  d E =-.514267E-02
 summed vel is now  0.000000000000000E+000 -1.301042606982605E-018
  0.000000000000000E+000
quench:  g(F)=  0.749E-03 g(S)=  0.000E+00 dE (1.order)=-0.568E-02
 bond charge predicted
       N       E                     dE             d eps       ncg     rms          rms(c)
DAV:   1    -0.557579157607E+02    0.13902E-03   -0.24765E+00   160   0.475E+00    0.277E-01
DAV:   2    -0.557724518939E+02   -0.14536E-01   -0.13590E-01   240   0.156E+00    0.101E+00
DAV:   3    -0.557645478254E+02    0.79041E-02   -0.11062E-01   220   0.134E+00    0.418E-01
DAV:   4    -0.557621646655E+02    0.23832E-02   -0.20701E-02   220   0.564E-01    0.192E-01
DAV:   5    -0.557616359687E+02    0.52870E-03   -0.72111E-03   200   0.304E-01    0.221E-01
DAV:   6    -0.557613206663E+02    0.31530E-03   -0.54258E-03   160   0.242E-01    0.115E-01
DAV:   7    -0.557610570198E+02    0.26365E-03   -0.22529E-03   180   0.218E-01    0.893E-02
DAV:   8    -0.557609151248E+02    0.14189E-03   -0.75476E-04   140   0.179E-01    0.309E-02
DAV:   9    -0.557608862664E+02    0.28858E-04   -0.17261E-04   120   0.858E-02
  51 F= -.55760886E+02 E0= -.55675898E+02  d E =-.284138E-02
 summed vel is now -8.673617379884035E-019 -2.168404344971009E-019
 -2.168404344971009E-019
quench:  g(F)=  0.109E-02 g(S)=  0.000E+00 dE (1.order)=-0.246E-02
 bond charge predicted
       N       E                     dE             d eps       ncg     rms          rms(c)
DAV:   1    -0.557624039738E+02   -0.14888E-02   -0.32111E-01   160   0.171E+00    0.112E-01
DAV:   2    -0.557643954197E+02   -0.19914E-02   -0.17177E-02   260   0.632E-01    0.377E-01
DAV:   3    -0.557635889410E+02    0.80648E-03   -0.17388E-02   200   0.550E-01    0.197E-01
DAV:   4    -0.557630052698E+02    0.58367E-03   -0.45775E-03   140   0.254E-01    0.822E-02
DAV:   5    -0.557628295959E+02    0.17567E-03   -0.11677E-03   100   0.132E-01    0.800E-02
DAV:   6    -0.557627813067E+02    0.48289E-04   -0.77486E-04   100   0.111E-01
  52 F= -.55762781E+02 E0= -.55678000E+02  d E =-.189504E-02
 summed vel is now -7.589415207398531E-019  4.336808689942018E-019
  2.168404344971009E-019
quench:  g(F)=  0.430E-03 g(S)=  0.000E+00 dE (1.order)=-0.212E-02
 bond charge predicted
       N       E                     dE             d eps       ncg     rms          rms(c)
DAV:   1    -0.557638328764E+02   -0.10033E-02   -0.59775E-01   160   0.233E+00    0.109E-01
DAV:   2    -0.557652770548E+02   -0.14442E-02   -0.12739E-02   240   0.553E-01    0.192E-01
DAV:   3    -0.557649738917E+02    0.30316E-03   -0.50155E-03   200   0.390E-01    0.130E-01
DAV:   4    -0.557648370253E+02    0.13687E-03   -0.23360E-03   100   0.178E-01    0.935E-02
DAV:   5    -0.557646907258E+02    0.14630E-03   -0.71936E-04   100   0.123E-01    0.486E-02
DAV:   6    -0.557646234985E+02    0.67227E-04   -0.43348E-04   100   0.130E-01
  53 F= -.55764623E+02 E0= -.55679987E+02  d E =-.184219E-02
 summed vel is now -5.421010862427522E-019  4.336808689942018E-019
  4.336808689942018E-019
quench:  g(F)=  0.402E-03 g(S)=  0.000E+00 dE (1.order)=-0.253E-02
 bond charge predicted
       N       E                     dE             d eps       ncg     rms          rms(c)
DAV:   1    -0.557654885787E+02   -0.79785E-03   -0.91187E-01   160   0.287E+00    0.169E-01
DAV:   2    -0.557718926348E+02   -0.64041E-02   -0.61847E-02   240   0.891E-01    0.783E-01
DAV:   3    -0.557684771563E+02    0.34155E-02   -0.55809E-02   200   0.809E-01    0.203E-01
DAV:   4    -0.557670774138E+02    0.13997E-02   -0.61516E-03   160   0.291E-01    0.136E-01
DAV:   5    -0.557669481835E+02    0.12923E-03   -0.24094E-03   100   0.175E-01    0.973E-02
DAV:   6    -0.557667880352E+02    0.16015E-03   -0.10023E-03   100   0.141E-01    0.615E-02
DAV:   7    -0.557667069917E+02    0.81043E-04   -0.54923E-04   140   0.139E-01
  54 F= -.55766707E+02 E0= -.55682467E+02  d E =-.208349E-02
 summed vel is now  6.505213034913027E-019 -2.168404344971009E-019
  5.421010862427522E-020
quench:  g(F)=  0.407E-03 g(S)=  0.000E+00 dE (1.order)=-0.277E-02
 bond charge predicted
       N       E                     dE             d eps       ncg     rms          rms(c)
DAV:   1    -0.557673408933E+02   -0.55286E-03   -0.10888E+00   160   0.314E+00    0.188E-01
DAV:   2    -0.557733868207E+02   -0.60459E-02   -0.60756E-02   240   0.101E+00    0.719E-01
DAV:   3    -0.557707026582E+02    0.26842E-02   -0.58168E-02   200   0.833E-01    0.327E-01
DAV:   4    -0.557693780268E+02    0.13246E-02   -0.10233E-02   220   0.386E-01    0.119E-01
DAV:   5    -0.557688902044E+02    0.48782E-03   -0.19208E-03   140   0.191E-01    0.983E-02
DAV:   6    -0.557688175968E+02    0.72608E-04   -0.15348E-03   100   0.154E-01    0.948E-02
DAV:   7    -0.557687504914E+02    0.67105E-04   -0.14858E-03   100   0.168E-01    0.801E-02
DAV:   8    -0.557686752326E+02    0.75259E-04   -0.85739E-04   100   0.152E-01
  55 F= -.55768675E+02 E0= -.55684541E+02  d E =-.196824E-02
 summed vel is now  1.301042606982605E-018 -4.336808689942018E-019
 -8.673617379884035E-019
quench:  g(F)=  0.410E-03 g(S)=  0.000E+00 dE (1.order)=-0.236E-02
 bond charge predicted
       N       E                     dE             d eps       ncg     rms          rms(c)
DAV:   1    -0.557691700440E+02   -0.41955E-03   -0.77965E-01   160   0.267E+00    0.152E-01
DAV:   2    -0.557736880803E+02   -0.45180E-02   -0.43343E-02   240   0.820E-01    0.601E-01
DAV:   3    -0.557717014438E+02    0.19866E-02   -0.37589E-02   200   0.725E-01    0.222E-01
DAV:   4    -0.557706236267E+02    0.10778E-02   -0.64086E-03   200   0.307E-01    0.119E-01
DAV:   5    -0.557704176649E+02    0.20596E-03   -0.23665E-03   100   0.182E-01    0.117E-01
DAV:   6    -0.557703061724E+02    0.11149E-03   -0.15002E-03   100   0.151E-01    0.620E-02
DAV:   7    -0.557702197094E+02    0.86463E-04   -0.62079E-04   140   0.127E-01
  56 F= -.55770220E+02 E0= -.55686245E+02  d E =-.154448E-02
 summed vel is now  8.673617379884035E-019 -1.084202172485504E-019
 -2.168404344971009E-019
quench:  g(F)=  0.387E-03 g(S)=  0.000E+00 dE (1.order)=-0.162E-02
 bond charge predicted
       N       E                     dE             d eps       ncg     rms          rms(c)
DAV:   1    -0.557707800996E+02   -0.47393E-03   -0.38973E-01   160   0.189E+00    0.109E-01
DAV:   2    -0.557721153558E+02   -0.13353E-02   -0.12494E-02   260   0.614E-01    0.233E-01
DAV:   3    -0.557716872015E+02    0.42815E-03   -0.79724E-03   220   0.458E-01    0.161E-01
DAV:   4    -0.557714546271E+02    0.23257E-03   -0.30932E-03   100   0.207E-01    0.783E-02
DAV:   5    -0.557713089157E+02    0.14571E-03   -0.63810E-04   100   0.115E-01    0.457E-02
DAV:   6    -0.557712924326E+02    0.16483E-04   -0.45752E-04   100   0.962E-02
  57 F= -.55771292E+02 E0= -.55687136E+02  d E =-.107272E-02
 summed vel is now  3.252606517456513E-019 -1.084202172485504E-019
  0.000000000000000E+000
quench:  g(F)=  0.293E-03 g(S)=  0.000E+00 dE (1.order)=-0.125E-02
 bond charge predicted
       N       E                     dE             d eps       ncg     rms          rms(c)
DAV:   1    -0.557718127862E+02   -0.50387E-03   -0.30501E-01   160   0.167E+00    0.102E-01
DAV:   2    -0.557737192366E+02   -0.19065E-02   -0.18267E-02   240   0.539E-01    0.401E-01
DAV:   3    -0.557730750477E+02    0.64419E-03   -0.16802E-02   200   0.480E-01    0.145E-01
DAV:   4    -0.557723503603E+02    0.72469E-03   -0.27306E-03   140   0.207E-01    0.701E-02
DAV:   5    -0.557722673405E+02    0.83020E-04   -0.10413E-03   100   0.116E-01    0.823E-02
DAV:   6    -0.557722215644E+02    0.45776E-04   -0.71216E-04   100   0.107E-01
  58 F= -.55772222E+02 E0= -.55688309E+02  d E =-.929132E-03
 summed vel is now  1.084202172485504E-019 -4.336808689942018E-019
 -1.490777987167569E-019
quench:  g(F)=  0.274E-03 g(S)=  0.000E+00 dE (1.order)=-0.127E-02
 reached required accuracy - stopping structural energy minimisation
