 running on   40 total cores
 each image running on    8 cores
 distrk:  each k-point on    8 cores,    1 groups
 distr:  one band on    1 cores,    8 groups
 vasp.5.4.1 05Feb16 (build Nov 22 2018 20:17:51) complex                        
  
 POSCAR found type information on POSCAR  Cu Ag
 01/POSCAR found :  2 types and      37 ions
 scaLAPACK will be used

 ----------------------------------------------------------------------------- 
|                                                                             |
|           W    W    AA    RRRRR   N    N  II  N    N   GGGG   !!!           |
|           W    W   A  A   R    R  NN   N  II  NN   N  G    G  !!!           |
|           W    W  A    A  R    R  N N  N  II  N N  N  G       !!!           |
|           W WW W  AAAAAA  RRRRR   N  N N  II  N  N N  G  GGG   !            |
|           WW  WW  A    A  R   R   N   NN  II  N   NN  G    G                |
|           W    W  A    A  R    R  N    N  II  N    N   GGGG   !!!           |
|                                                                             |
|      For optimal performance we recommend to set                            |
|        NCORE= 4 - approx SQRT( number of cores)                             |
|      NCORE specifies how many cores store one orbital (NPAR=cpu/NCORE).     |
|      This setting can  greatly improve the performance of VASP for DFT.     |
|      The default, NPAR=number of cores might be grossly inefficient         |
|      on modern multi-core architectures or massively parallel machines.     |
|      Do your own testing !!!!                                               |
|      Unfortunately you need to use the default for GW and RPA calculations. |
|      (for HF NCORE is supported but not extensively tested yet)             |
|                                                                             |
 ----------------------------------------------------------------------------- 

 LDA part: xc-table for Ceperly-Alder, standard interpolation
 POSCAR found type information on POSCAR  Cu Ag
 00/POSCAR found :  2 types and      37 ions
 POSCAR found type information on POSCAR  Cu Ag
 06/POSCAR found :  2 types and      37 ions
 Jacobian:    19.6723208379109     
 POSCAR, INCAR and KPOINTS ok, starting setup
 WARNING: small aliasing (wrap around) errors must be expected
 FFT: planning ...
 WAVECAR not read
 entering main loop
       N       E                     dE             d eps       ncg     rms          rms(c)
DAV:   1     0.307811455381E+04    0.30781E+04   -0.17794E+05  4464   0.177E+03
DAV:   2     0.169969815853E+03   -0.29081E+04   -0.27664E+04  4464   0.404E+02
DAV:   3    -0.143664927161E+03   -0.31363E+03   -0.29538E+03  4640   0.167E+02
DAV:   4    -0.155808519508E+03   -0.12144E+02   -0.11986E+02  4784   0.369E+01
DAV:   5    -0.155919515780E+03   -0.11100E+00   -0.11088E+00  4848   0.297E+00    0.397E+01
DAV:   6    -0.141164150148E+03    0.14755E+02   -0.31417E+02  4896   0.936E+01    0.200E+01
DAV:   7    -0.128298290509E+03    0.12866E+02   -0.61119E+01  4992   0.487E+01    0.295E+00
DAV:   8    -0.128870197034E+03   -0.57191E+00   -0.58838E+00  5168   0.368E+01    0.467E+00
DAV:   9    -0.128302112892E+03    0.56808E+00   -0.22465E+00  5656   0.283E+01    0.253E+00
DAV:  10    -0.128218736867E+03    0.83376E-01   -0.62476E-01  6024   0.947E+00    0.186E+00
DAV:  11    -0.128182542608E+03    0.36194E-01   -0.59420E-01  4696   0.624E+00    0.838E-01
DAV:  12    -0.128182556241E+03   -0.13633E-04   -0.10818E-01  4832   0.190E+00    0.611E-01
DAV:  13    -0.128176287838E+03    0.62684E-02   -0.40505E-02  4816   0.219E+00    0.401E-01
DAV:  14    -0.128172079820E+03    0.42080E-02   -0.14455E-02  4824   0.121E+00    0.215E-01
DAV:  15    -0.128168407821E+03    0.36720E-02   -0.12273E-02  4688   0.102E+00    0.188E-01
DAV:  16    -0.128166035439E+03    0.23724E-02   -0.60550E-03  4736   0.569E-01    0.832E-02
DAV:  17    -0.128165262718E+03    0.77272E-03   -0.21358E-03  4656   0.384E-01    0.720E-02
DAV:  18    -0.128165430433E+03   -0.16771E-03   -0.79517E-04  4680   0.283E-01    0.675E-02
DAV:  19    -0.128166811078E+03   -0.13806E-02   -0.13282E-03  4600   0.324E-01    0.504E-02
DAV:  20    -0.128168583133E+03   -0.17721E-02   -0.30504E-04  5200   0.183E-01    0.616E-02
DAV:  21    -0.128169300807E+03   -0.71767E-03   -0.59329E-04  4632   0.505E-01    0.275E-02
DAV:  22    -0.128169676446E+03   -0.37564E-03   -0.32740E-04  4672   0.907E-02    0.147E-02
DAV:  23    -0.128169772623E+03   -0.96178E-04   -0.76427E-05  4576   0.489E-02    0.241E-02
DAV:  24    -0.128169800354E+03   -0.27731E-04   -0.52692E-05  4504   0.459E-02    0.112E-02
DAV:  25    -0.128169805834E+03   -0.54792E-05   -0.24739E-05  2824   0.125E-01
   1 F= -.12816981E+03 E0= -.12813016E+03  d E =-.128170E+03
quench:  g(F)=  0.000E+00 g(S)=  0.000E+00 dE (1.order)= 0.000E+00
 bond charge predicted
       N       E                     dE             d eps       ncg     rms          rms(c)
DAV:   1    -0.128170505403E+03   -0.70505E-03   -0.12179E-02  4672   0.233E-01    0.103E-02
DAV:   2    -0.128170591062E+03   -0.85659E-04   -0.17206E-04  3808   0.377E-01    0.352E-02
DAV:   3    -0.128170498186E+03    0.92876E-04   -0.95200E-05  3544   0.285E-01    0.422E-03
DAV:   4    -0.128170501726E+03   -0.35398E-05   -0.30849E-05  3832   0.221E-02
   2 F= -.12817050E+03 E0= -.12813082E+03  d E =-.695892E-03
quench:  g(F)=  0.000E+00 g(S)=  0.000E+00 dE (1.order)= 0.000E+00
 bond charge predicted
       N       E                     dE             d eps       ncg     rms          rms(c)
DAV:   1    -0.128177450174E+03   -0.69520E-02   -0.21680E+00  4464   0.310E+00    0.917E-02
DAV:   2    -0.128178121129E+03   -0.67095E-03   -0.89799E-03  4640   0.469E-01    0.792E-02
DAV:   3    -0.128178114904E+03    0.62251E-05   -0.13495E-03  4792   0.419E-01    0.556E-02
DAV:   4    -0.128178052781E+03    0.62123E-04   -0.23295E-04  4784   0.277E-01    0.306E-02
DAV:   5    -0.128178078340E+03   -0.25559E-04   -0.20703E-04  4976   0.381E-01    0.263E-02
DAV:   6    -0.128178029815E+03    0.48526E-04   -0.91591E-05  3680   0.260E-01    0.533E-03
DAV:   7    -0.128178031779E+03   -0.19643E-05   -0.52979E-05  4496   0.685E-02
   3 F= -.12817803E+03 E0= -.12813833E+03  d E =-.753005E-02
quench:  g(F)=  0.000E+00 g(S)=  0.000E+00 dE (1.order)= 0.000E+00
 bond charge predicted
       N       E                     dE             d eps       ncg     rms          rms(c)
DAV:   1    -0.128184332613E+03   -0.63028E-02   -0.80174E+00  4464   0.606E+00    0.170E-01
DAV:   2    -0.128186229875E+03   -0.18973E-02   -0.26851E-02  4664   0.860E-01    0.153E-01
DAV:   3    -0.128186106198E+03    0.12368E-03   -0.40108E-03  4792   0.751E-01    0.102E-01
DAV:   4    -0.128185823599E+03    0.28260E-03   -0.80985E-04  6168   0.296E-01    0.251E-02
DAV:   5    -0.128185876482E+03   -0.52883E-04   -0.28352E-04  5992   0.342E-01    0.363E-02
DAV:   6    -0.128185810231E+03    0.66250E-04   -0.17590E-04  4688   0.320E-01    0.111E-02
DAV:   7    -0.128185811537E+03   -0.13060E-05   -0.57602E-05  4536   0.553E-02
   4 F= -.12818581E+03 E0= -.12814601E+03  d E =-.777976E-02
quench:  g(F)=  0.000E+00 g(S)=  0.000E+00 dE (1.order)= 0.000E+00
 bond charge predicted
       N       E                     dE             d eps       ncg     rms          rms(c)
DAV:   1    -0.128187579720E+03   -0.17695E-02   -0.70910E+00  4464   0.575E+00    0.156E-01
DAV:   2    -0.128188898465E+03   -0.13187E-02   -0.20172E-02  4600   0.688E-01    0.128E-01
DAV:   3    -0.128188818889E+03    0.79576E-04   -0.27354E-03  4672   0.750E-01    0.103E-01
DAV:   4    -0.128188848392E+03   -0.29503E-04   -0.11813E-03  6192   0.876E-01    0.667E-02
DAV:   5    -0.128188509741E+03    0.33865E-03   -0.83760E-04  7672   0.707E-01    0.282E-02
DAV:   6    -0.128188503370E+03    0.63704E-05   -0.25043E-04  4936   0.167E-01    0.134E-02
DAV:   7    -0.128188506032E+03   -0.26621E-05   -0.75133E-05  4496   0.464E-02
   5 F= -.12818851E+03 E0= -.12814858E+03  d E =-.269450E-02
quench:  g(F)=  0.000E+00 g(S)=  0.000E+00 dE (1.order)= 0.000E+00
 bond charge predicted
       N       E                     dE             d eps       ncg     rms          rms(c)
DAV:   1    -0.128187183916E+03    0.13195E-02   -0.81847E+00  4464   0.624E+00    0.171E-01
DAV:   2    -0.128188637629E+03   -0.14537E-02   -0.23033E-02  4760   0.779E-01    0.144E-01
DAV:   3    -0.128188629883E+03    0.77460E-05   -0.39449E-03  4792   0.919E-01    0.116E-01
DAV:   4    -0.128188623678E+03    0.62049E-05   -0.15916E-03  5128   0.106E+00    0.841E-02
DAV:   5    -0.128188182248E+03    0.44143E-03   -0.11063E-03  7768   0.800E-01    0.241E-02
DAV:   6    -0.128188185645E+03   -0.33971E-05   -0.36580E-04  6216   0.187E-01    0.126E-02
DAV:   7    -0.128188191585E+03   -0.59408E-05   -0.10480E-04  4696   0.508E-02    0.108E-02
DAV:   8    -0.128188190339E+03    0.12463E-05   -0.96434E-06  2704   0.253E-02
   6 F= -.12818819E+03 E0= -.12814826E+03  d E =0.315693E-03
quench:  g(F)=  0.000E+00 g(S)=  0.000E+00 dE (1.order)= 0.000E+00
 bond charge predicted
       N       E                     dE             d eps       ncg     rms          rms(c)
DAV:   1    -0.128181262253E+03    0.69293E-02   -0.13680E+01  4472   0.792E+00    0.223E-01
DAV:   2    -0.128185302912E+03   -0.40407E-02   -0.55542E-02  4560   0.111E+00    0.191E-01
DAV:   3    -0.128185213040E+03    0.89873E-04   -0.68223E-03  4752   0.109E+00    0.136E-01
DAV:   4    -0.128185125362E+03    0.87678E-04   -0.21248E-03  4872   0.116E+00    0.106E-01
DAV:   5    -0.128184694792E+03    0.43057E-03   -0.15717E-03  6184   0.107E+00    0.540E-02
DAV:   6    -0.128184578540E+03    0.11625E-03   -0.89932E-04  7600   0.405E-01    0.149E-02
DAV:   7    -0.128184595302E+03   -0.16762E-04   -0.26487E-04  4704   0.940E-02    0.134E-02
DAV:   8    -0.128184594844E+03    0.45778E-06   -0.47713E-05  4456   0.515E-02
   7 F= -.12818459E+03 E0= -.12814438E+03  d E =0.359550E-02
quench:  g(F)=  0.000E+00 g(S)=  0.000E+00 dE (1.order)= 0.000E+00
 bond charge predicted
       N       E                     dE             d eps       ncg     rms          rms(c)
DAV:   1    -0.128170198542E+03    0.14397E-01   -0.20385E+01  4464   0.843E+00    0.206E-01
DAV:   2    -0.128180516428E+03   -0.10318E-01   -0.11343E-01  5176   0.116E+00    0.199E-01
DAV:   3    -0.128180258971E+03    0.25746E-03   -0.61608E-03  4768   0.907E-01    0.132E-01
DAV:   4    -0.128180067146E+03    0.19183E-03   -0.11577E-03  4944   0.726E-01    0.109E-01
DAV:   5    -0.128180037683E+03    0.29463E-04   -0.13015E-03  5680   0.955E-01    0.941E-02
DAV:   6    -0.128179627730E+03    0.40995E-03   -0.13599E-03  7344   0.561E-01    0.244E-02
DAV:   7    -0.128179645771E+03   -0.18041E-04   -0.38250E-04  4768   0.113E-01    0.156E-02
DAV:   8    -0.128179643343E+03    0.24285E-05   -0.63622E-05  4440   0.623E-02
   8 F= -.12817964E+03 E0= -.12813958E+03  d E =0.495150E-02
quench:  g(F)=  0.000E+00 g(S)=  0.000E+00 dE (1.order)= 0.000E+00
 bond charge predicted
       N       E                     dE             d eps       ncg     rms          rms(c)
DAV:   1    -0.128175501957E+03    0.41438E-02   -0.10704E+01  4464   0.643E+00    0.168E-01
DAV:   2    -0.128180612178E+03   -0.51102E-02   -0.57367E-02  4832   0.974E-01    0.158E-01
DAV:   3    -0.128180513432E+03    0.98746E-04   -0.43505E-03  4824   0.718E-01    0.101E-01
DAV:   4    -0.128180327250E+03    0.18618E-03   -0.57716E-04  4992   0.390E-01    0.669E-02
DAV:   5    -0.128180638169E+03   -0.31092E-03   -0.94185E-04  5384   0.833E-01    0.845E-02
DAV:   6    -0.128180207445E+03    0.43072E-03   -0.66478E-04  7232   0.657E-01    0.146E-02
DAV:   7    -0.128180223635E+03   -0.16190E-04   -0.23704E-04  4744   0.812E-02    0.107E-02
DAV:   8    -0.128180221413E+03    0.22220E-05   -0.28871E-05  3648   0.458E-02
   9 F= -.12818022E+03 E0= -.12814021E+03  d E =-.578071E-03
quench:  g(F)=  0.000E+00 g(S)=  0.000E+00 dE (1.order)= 0.000E+00
 bond charge predicted
       N       E                     dE             d eps       ncg     rms          rms(c)
DAV:   1    -0.128150367001E+03    0.29857E-01   -0.40153E+01  4464   0.104E+01    0.243E-01
DAV:   2    -0.128176054465E+03   -0.25687E-01   -0.27039E-01  4688   0.128E+00    0.223E-01
DAV:   3    -0.128175587235E+03    0.46723E-03   -0.76584E-03  4560   0.637E-01    0.158E-01
DAV:   4    -0.128175259239E+03    0.32800E-03   -0.94543E-04  4840   0.486E-01    0.136E-01
DAV:   5    -0.128175059237E+03    0.20000E-03   -0.12526E-03  6504   0.769E-01    0.956E-02
DAV:   6    -0.128174655042E+03    0.40419E-03   -0.13034E-03  7280   0.847E-01    0.385E-02
DAV:   7    -0.128174632299E+03    0.22743E-04   -0.64401E-04  6408   0.278E-01    0.207E-02
DAV:   8    -0.128174636719E+03   -0.44203E-05   -0.19240E-04  4736   0.699E-02    0.156E-02
DAV:   9    -0.128174630372E+03    0.63469E-05   -0.32883E-05  3296   0.420E-02
  10 F= -.12817463E+03 E0= -.12813459E+03  d E =0.559104E-02
quench:  g(F)=  0.000E+00 g(S)=  0.000E+00 dE (1.order)= 0.000E+00
 bond charge predicted
       N       E                     dE             d eps       ncg     rms          rms(c)
DAV:   1    -0.128172144098E+03    0.24926E-02   -0.46080E+00  4464   0.416E+00    0.105E-01
DAV:   2    -0.128174383502E+03   -0.22394E-02   -0.24812E-02  4712   0.521E-01    0.863E-02
DAV:   3    -0.128174321771E+03    0.61732E-04   -0.12283E-03  4840   0.349E-01    0.654E-02
DAV:   4    -0.128174234183E+03    0.87588E-04   -0.22814E-04  5072   0.263E-01    0.423E-02
DAV:   5    -0.128174285960E+03   -0.51777E-04   -0.31418E-04  6912   0.411E-01    0.428E-02
DAV:   6    -0.128174182587E+03    0.10337E-03   -0.20993E-04  6144   0.371E-01    0.108E-02
DAV:   7    -0.128174183695E+03   -0.11082E-05   -0.62209E-05  4568   0.643E-02
  11 F= -.12817418E+03 E0= -.12813414E+03  d E =0.446677E-03
quench:  g(F)=  0.000E+00 g(S)=  0.000E+00 dE (1.order)= 0.000E+00
 bond charge predicted
       N       E                     dE             d eps       ncg     rms          rms(c)
DAV:   1    -0.128168624898E+03    0.55577E-02   -0.82202E+00  4464   0.503E+00    0.121E-01
DAV:   2    -0.128173230852E+03   -0.46060E-02   -0.49322E-02  4752   0.630E-01    0.103E-01
DAV:   3    -0.128173171653E+03    0.59198E-04   -0.21154E-03  4608   0.371E-01    0.760E-02
DAV:   4    -0.128173080919E+03    0.90734E-04   -0.25337E-04  4808   0.243E-01    0.590E-02
DAV:   5    -0.128173032670E+03    0.48249E-04   -0.38021E-04  7552   0.318E-01    0.344E-02
DAV:   6    -0.128172976894E+03    0.55776E-04   -0.23917E-04  5664   0.405E-01    0.191E-02
DAV:   7    -0.128172962967E+03    0.13926E-04   -0.64204E-05  4408   0.141E-01    0.816E-03
DAV:   8    -0.128172965348E+03   -0.23809E-05   -0.39160E-05  4112   0.301E-02
  12 F= -.12817297E+03 E0= -.12813271E+03  d E =0.121835E-02
quench:  g(F)=  0.000E+00 g(S)=  0.000E+00 dE (1.order)= 0.000E+00
 bond charge predicted
       N       E                     dE             d eps       ncg     rms          rms(c)
DAV:   1    -0.128165690122E+03    0.72728E-02   -0.10918E+01  4464   0.565E+00    0.127E-01
DAV:   2    -0.128171903004E+03   -0.62129E-02   -0.65327E-02  4752   0.677E-01    0.116E-01
DAV:   3    -0.128171776570E+03    0.12643E-03   -0.21961E-03  4840   0.396E-01    0.864E-02
DAV:   4    -0.128171668476E+03    0.10809E-03   -0.28250E-04  5040   0.256E-01    0.695E-02
DAV:   5    -0.128171669358E+03   -0.88164E-06   -0.53789E-04  6824   0.512E-01    0.591E-02
DAV:   6    -0.128171485582E+03    0.18378E-03   -0.45647E-04  7128   0.504E-01    0.143E-02
DAV:   7    -0.128171491679E+03   -0.60970E-05   -0.15187E-04  5968   0.100E-01    0.107E-02
DAV:   8    -0.128171491138E+03    0.54139E-06   -0.35557E-05  4096   0.399E-02
  13 F= -.12817149E+03 E0= -.12813126E+03  d E =0.147421E-02
quench:  g(F)=  0.000E+00 g(S)=  0.000E+00 dE (1.order)= 0.000E+00
 bond charge predicted
       N       E                     dE             d eps       ncg     rms          rms(c)
DAV:   1    -0.128157571167E+03    0.13921E-01   -0.24159E+01  4464   0.855E+00    0.199E-01
DAV:   2    -0.128171195405E+03   -0.13624E-01   -0.14556E-01  4824   0.100E+00    0.177E-01
DAV:   3    -0.128170903734E+03    0.29167E-03   -0.49039E-03  4640   0.662E-01    0.130E-01
DAV:   4    -0.128170740968E+03    0.16277E-03   -0.89910E-04  4896   0.623E-01    0.111E-01
DAV:   5    -0.128170588701E+03    0.15227E-03   -0.93617E-04  5936   0.775E-01    0.879E-02
DAV:   6    -0.128170239948E+03    0.34875E-03   -0.12166E-03  7440   0.536E-01    0.180E-02
DAV:   7    -0.128170268712E+03   -0.28764E-04   -0.35710E-04  5032   0.115E-01    0.148E-02
DAV:   8    -0.128170266038E+03    0.26744E-05   -0.50515E-05  4616   0.538E-02
  14 F= -.12817027E+03 E0= -.12813004E+03  d E =0.122510E-02
quench:  g(F)=  0.000E+00 g(S)=  0.000E+00 dE (1.order)= 0.000E+00
 bond charge predicted
       N       E                     dE             d eps       ncg     rms          rms(c)
DAV:   1    -0.128075820975E+03    0.94448E-01   -0.15114E+02  4464   0.218E+01    0.563E-01
DAV:   2    -0.128173784182E+03   -0.97963E-01   -0.10704E+00  4992   0.300E+00    0.519E-01
DAV:   3    -0.128171779674E+03    0.20045E-02   -0.46088E-02  4752   0.222E+00    0.343E-01
DAV:   4    -0.128170757180E+03    0.10225E-02   -0.82671E-03  4992   0.182E+00    0.300E-01
DAV:   5    -0.128169056823E+03    0.17004E-02   -0.53927E-03  5432   0.174E+00    0.219E-01
DAV:   6    -0.128167269845E+03    0.17870E-02   -0.84552E-03  6808   0.108E+00    0.423E-02
DAV:   7    -0.128167474073E+03   -0.20423E-03   -0.23898E-03  4592   0.301E-01    0.412E-02
DAV:   8    -0.128167456353E+03    0.17720E-04   -0.36131E-04  4720   0.172E-01    0.291E-02
DAV:   9    -0.128167436862E+03    0.19492E-04   -0.16804E-04  4752   0.109E-01    0.105E-02
DAV:  10    -0.128167441809E+03   -0.49478E-05   -0.40083E-05  3584   0.367E-02
  15 F= -.12816744E+03 E0= -.12812691E+03  d E =0.282423E-02
quench:  g(F)=  0.000E+00 g(S)=  0.000E+00 dE (1.order)= 0.000E+00
 bond charge predicted
       N       E                     dE             d eps       ncg     rms          rms(c)
DAV:   1    -0.128164000864E+03    0.34360E-02   -0.11825E+01  4464   0.628E+00    0.156E-01
DAV:   2    -0.128170436236E+03   -0.64354E-02   -0.69625E-02  5176   0.987E-01    0.155E-01
DAV:   3    -0.128170263728E+03    0.17251E-03   -0.39978E-03  4784   0.687E-01    0.961E-02
DAV:   4    -0.128170131018E+03    0.13271E-03   -0.54191E-04  4856   0.396E-01    0.764E-02
DAV:   5    -0.128170243144E+03   -0.11213E-03   -0.76309E-04  5504   0.731E-01    0.782E-02
DAV:   6    -0.128169923160E+03    0.31998E-03   -0.76364E-04  7616   0.524E-01    0.151E-02
DAV:   7    -0.128169941794E+03   -0.18635E-04   -0.25892E-04  4640   0.817E-02    0.126E-02
DAV:   8    -0.128169938437E+03    0.33570E-05   -0.35440E-05  4032   0.509E-02
  16 F= -.12816994E+03 E0= -.12812969E+03  d E =-.249663E-02
quench:  g(F)=  0.000E+00 g(S)=  0.000E+00 dE (1.order)= 0.000E+00
 bond charge predicted
       N       E                     dE             d eps       ncg     rms          rms(c)
DAV:   1    -0.128170254376E+03   -0.31258E-03   -0.24427E+00  4512   0.322E+00    0.812E-02
DAV:   2    -0.128170997804E+03   -0.74343E-03   -0.93210E-03  4736   0.331E-01    0.622E-02
DAV:   3    -0.128170925046E+03    0.72759E-04   -0.41159E-04  4768   0.229E-01    0.457E-02
DAV:   4    -0.128170890610E+03    0.34436E-04   -0.18523E-04  5032   0.313E-01    0.315E-02
DAV:   5    -0.128170909186E+03   -0.18576E-04   -0.22847E-04  5584   0.402E-01    0.292E-02
DAV:   6    -0.128170850926E+03    0.58260E-04   -0.90723E-05  3824   0.249E-01    0.568E-03
DAV:   7    -0.128170856244E+03   -0.53186E-05   -0.66691E-05  4856   0.409E-02
  17 F= -.12817086E+03 E0= -.12813055E+03  d E =-.917807E-03
quench:  g(F)=  0.000E+00 g(S)=  0.000E+00 dE (1.order)= 0.000E+00
 bond charge predicted
       N       E                     dE             d eps       ncg     rms          rms(c)
DAV:   1    -0.128171090087E+03   -0.23916E-03   -0.14845E+01  4464   0.822E+00    0.211E-01
DAV:   2    -0.128173923285E+03   -0.28332E-02   -0.42062E-02  4704   0.804E-01    0.169E-01
DAV:   3    -0.128173498124E+03    0.42516E-03   -0.32102E-03  4888   0.854E-01    0.130E-01
DAV:   4    -0.128173431702E+03    0.66422E-04   -0.18417E-03  6240   0.111E+00    0.798E-02
DAV:   5    -0.128173020822E+03    0.41088E-03   -0.17606E-03  8304   0.103E+00    0.482E-02
DAV:   6    -0.128172907076E+03    0.11375E-03   -0.47368E-04  7216   0.390E-01    0.142E-02
DAV:   7    -0.128172916850E+03   -0.97738E-05   -0.18364E-04  4696   0.821E-02    0.113E-02
DAV:   8    -0.128172917462E+03   -0.61170E-06   -0.32398E-05  3744   0.362E-02
  18 F= -.12817292E+03 E0= -.12813260E+03  d E =-.206122E-02
quench:  g(F)=  0.000E+00 g(S)=  0.000E+00 dE (1.order)= 0.000E+00
 bond charge predicted
       N       E                     dE             d eps       ncg     rms          rms(c)
DAV:   1    -0.128141055190E+03    0.31862E-01   -0.72070E+01  4464   0.162E+01    0.405E-01
DAV:   2    -0.128176928877E+03   -0.35874E-01   -0.40314E-01  4848   0.194E+00    0.352E-01
DAV:   3    -0.128175650679E+03    0.12782E-02   -0.17493E-02  4856   0.150E+00    0.246E-01
DAV:   4    -0.128175154671E+03    0.49601E-03   -0.45037E-03  5160   0.155E+00    0.210E-01
DAV:   5    -0.128174489768E+03    0.66490E-03   -0.47601E-03  5752   0.179E+00    0.158E-01
DAV:   6    -0.128173326232E+03    0.11635E-02   -0.45643E-03  7496   0.102E+00    0.303E-02
DAV:   7    -0.128173426639E+03   -0.10041E-03   -0.13723E-03  4704   0.166E-01    0.309E-02
DAV:   8    -0.128173410288E+03    0.16351E-04   -0.99543E-05  4584   0.870E-02    0.195E-02
DAV:   9    -0.128173397258E+03    0.13030E-04   -0.77949E-05  4192   0.525E-02    0.928E-03
DAV:  10    -0.128173397948E+03   -0.68931E-06   -0.20367E-05  3240   0.357E-02
  19 F= -.12817340E+03 E0= -.12813290E+03  d E =-.480486E-03
quench:  g(F)=  0.000E+00 g(S)=  0.000E+00 dE (1.order)= 0.000E+00
 bond charge predicted
       N       E                     dE             d eps       ncg     rms          rms(c)
DAV:   1    -0.128166038151E+03    0.73591E-02   -0.46981E+01  4464   0.151E+01    0.425E-01
DAV:   2    -0.128171562861E+03   -0.55247E-02   -0.11086E-01  4704   0.174E+00    0.359E-01
DAV:   3    -0.128170491534E+03    0.10713E-02   -0.17544E-02  4760   0.218E+00    0.270E-01
DAV:   4    -0.128171601567E+03   -0.11100E-02   -0.10997E-02  7144   0.272E+00    0.207E-01
DAV:   5    -0.128167863530E+03    0.37380E-02   -0.76873E-03  8504   0.202E+00    0.912E-02
DAV:   6    -0.128167835275E+03    0.28255E-04   -0.19770E-03  5192   0.348E-01    0.548E-02
DAV:   7    -0.128167815481E+03    0.19794E-04   -0.39970E-04  4816   0.108E-01    0.356E-02
DAV:   8    -0.128167789891E+03    0.25590E-04   -0.60281E-05  4464   0.399E-02    0.254E-02
DAV:   9    -0.128167777322E+03    0.12569E-04   -0.25349E-05  2872   0.736E-02    0.157E-02
DAV:  10    -0.128167770497E+03    0.68244E-05   -0.15086E-05  2680   0.555E-02
  20 F= -.12816777E+03 E0= -.12812730E+03  d E =0.562745E-02
quench:  g(F)=  0.000E+00 g(S)=  0.000E+00 dE (1.order)= 0.000E+00
 bond charge predicted
       N       E                     dE             d eps       ncg     rms          rms(c)
DAV:   1    -0.128009100096E+03    0.15868E+00   -0.16034E+02  4464   0.268E+01    0.928E-01
DAV:   2    -0.128114663907E+03   -0.10556E+00   -0.12414E+00  5264   0.773E+00    0.111E+00
DAV:   3    -0.128101344508E+03    0.13319E-01   -0.15717E-01  4840   0.542E+00    0.426E-01
DAV:   4    -0.128106509060E+03   -0.51646E-02   -0.28733E-02  5072   0.371E+00    0.438E-01
DAV:   5    -0.128098084752E+03    0.84243E-02   -0.24405E-02  4928   0.378E+00    0.205E-01
DAV:   6    -0.128097966363E+03    0.11839E-03   -0.13353E-02  5040   0.865E-01    0.839E-02
DAV:   7    -0.128097975042E+03   -0.86786E-05   -0.28413E-03  4848   0.463E-01    0.461E-02
DAV:   8    -0.128098025918E+03   -0.50876E-04   -0.12309E-03  4696   0.249E-01    0.348E-02
DAV:   9    -0.128098016324E+03    0.95939E-05   -0.35104E-04  4576   0.115E-01    0.141E-02
DAV:  10    -0.128098014243E+03    0.20810E-05   -0.14730E-05  2912   0.713E-02
  21 F= -.12809801E+03 E0= -.12805936E+03  d E =0.697563E-01
quench:  g(F)=  0.000E+00 g(S)=  0.000E+00 dE (1.order)= 0.000E+00
 bond charge predicted
       N       E                     dE             d eps       ncg     rms          rms(c)
DAV:   1    -0.128155152633E+03   -0.57136E-01   -0.37412E+01  4464   0.128E+01    0.400E-01
DAV:   2    -0.128174669778E+03   -0.19517E-01   -0.23752E-01  4592   0.210E+00    0.334E-01
DAV:   3    -0.128174480251E+03    0.18953E-03   -0.20134E-02  4752   0.174E+00    0.214E-01
DAV:   4    -0.128173806928E+03    0.67332E-03   -0.35313E-03  4840   0.118E+00    0.125E-01
DAV:   5    -0.128174714778E+03   -0.90785E-03   -0.38543E-03  4992   0.173E+00    0.155E-01
DAV:   6    -0.128173308207E+03    0.14066E-02   -0.20226E-03  7000   0.117E+00    0.200E-02
DAV:   7    -0.128173374328E+03   -0.66121E-04   -0.79199E-04  4864   0.145E-01    0.239E-02
DAV:   8    -0.128173375723E+03   -0.13945E-05   -0.16552E-04  4528   0.111E-01    0.154E-02
DAV:   9    -0.128173375361E+03    0.36205E-06   -0.14860E-05  2744   0.185E-02
  22 F= -.12817338E+03 E0= -.12813345E+03  d E =-.753611E-01
quench:  g(F)=  0.000E+00 g(S)=  0.000E+00 dE (1.order)= 0.000E+00
 bond charge predicted
       N       E                     dE             d eps       ncg     rms          rms(c)
DAV:   1    -0.128175282345E+03   -0.19066E-02   -0.96010E+00  4464   0.631E+00    0.190E-01
DAV:   2    -0.128180428927E+03   -0.51466E-02   -0.61075E-02  4576   0.969E-01    0.143E-01
DAV:   3    -0.128180531504E+03   -0.10258E-03   -0.48237E-03  4640   0.741E-01    0.102E-01
DAV:   4    -0.128180447224E+03    0.84280E-04   -0.11175E-03  4896   0.710E-01    0.755E-02
DAV:   5    -0.128180486660E+03   -0.39436E-04   -0.78760E-04  4952   0.791E-01    0.671E-02
DAV:   6    -0.128180270305E+03    0.21635E-03   -0.44606E-04  7800   0.497E-01    0.117E-02
DAV:   7    -0.128180275931E+03   -0.56257E-05   -0.15391E-04  5904   0.106E-01    0.831E-03
DAV:   8    -0.128180277225E+03   -0.12943E-05   -0.48308E-05  4464   0.604E-02
  23 F= -.12818028E+03 E0= -.12813990E+03  d E =-.690186E-02
quench:  g(F)=  0.000E+00 g(S)=  0.000E+00 dE (1.order)= 0.000E+00
 bond charge predicted
       N       E                     dE             d eps       ncg     rms          rms(c)
DAV:   1    -0.128180659965E+03   -0.38403E-03   -0.16157E-01  4576   0.878E-01    0.258E-02
DAV:   2    -0.128180714059E+03   -0.54094E-04   -0.66800E-04  4760   0.138E-01    0.230E-02
DAV:   3    -0.128180716919E+03   -0.28600E-05   -0.11067E-04  4776   0.143E-01    0.177E-02
DAV:   4    -0.128180718734E+03   -0.18154E-05   -0.43842E-05  3568   0.161E-01
  24 F= -.12818072E+03 E0= -.12814043E+03  d E =-.441509E-03
quench:  g(F)=  0.000E+00 g(S)=  0.000E+00 dE (1.order)= 0.000E+00
 bond charge predicted
       N       E                     dE             d eps       ncg     rms          rms(c)
DAV:   1    -0.128180823714E+03   -0.10680E-03   -0.14878E+00  4464   0.265E+00    0.767E-02
DAV:   2    -0.128181189877E+03   -0.36616E-03   -0.45807E-03  4736   0.482E-01    0.726E-02
DAV:   3    -0.128181233940E+03   -0.44063E-04   -0.14342E-03  4776   0.624E-01    0.582E-02
DAV:   4    -0.128181163385E+03    0.70555E-04   -0.39086E-04  4776   0.429E-01    0.381E-02
DAV:   5    -0.128181127922E+03    0.35463E-04   -0.17646E-04  5408   0.244E-01    0.121E-02
DAV:   6    -0.128181129601E+03   -0.16786E-05   -0.71912E-05  4320   0.738E-02
  25 F= -.12818113E+03 E0= -.12814115E+03  d E =-.410866E-03
quench:  g(F)=  0.000E+00 g(S)=  0.000E+00 dE (1.order)= 0.000E+00
 bond charge predicted
       N       E                     dE             d eps       ncg     rms          rms(c)
DAV:   1    -0.128144006175E+03    0.37122E-01   -0.46996E+01  4464   0.144E+01    0.403E-01
DAV:   2    -0.128165853992E+03   -0.21848E-01   -0.25350E-01  4704   0.273E+00    0.444E-01
DAV:   3    -0.128164814167E+03    0.10398E-02   -0.28661E-02  4728   0.190E+00    0.224E-01
DAV:   4    -0.128163590133E+03    0.12240E-02   -0.35289E-03  4744   0.567E-01    0.124E-01
DAV:   5    -0.128163483310E+03    0.10682E-03   -0.23582E-03  4896   0.660E-01    0.740E-02
DAV:   6    -0.128163452812E+03    0.30498E-04   -0.16238E-03  4768   0.874E-01    0.532E-02
DAV:   7    -0.128163331647E+03    0.12116E-03   -0.34276E-04  4992   0.451E-01    0.214E-02
DAV:   8    -0.128163330012E+03    0.16346E-05   -0.15637E-04  5144   0.126E-01    0.160E-02
DAV:   9    -0.128163327386E+03    0.26257E-05   -0.70483E-05  4600   0.615E-02
  26 F= -.12816333E+03 E0= -.12812261E+03  d E =0.178022E-01
quench:  g(F)=  0.000E+00 g(S)=  0.000E+00 dE (1.order)= 0.000E+00
 bond charge predicted
       N       E                     dE             d eps       ncg     rms          rms(c)
DAV:   1    -0.128168409471E+03   -0.50795E-02   -0.30817E+01  4464   0.118E+01    0.345E-01
DAV:   2    -0.128182337051E+03   -0.13928E-01   -0.16493E-01  4696   0.181E+00    0.282E-01
DAV:   3    -0.128183098723E+03   -0.76167E-03   -0.17351E-02  4744   0.208E+00    0.235E-01
DAV:   4    -0.128182417887E+03    0.68084E-03   -0.59604E-03  5088   0.203E+00    0.148E-01
DAV:   5    -0.128181453401E+03    0.96449E-03   -0.25290E-03  6600   0.135E+00    0.724E-02
DAV:   6    -0.128181289379E+03    0.16402E-03   -0.14375E-03  6432   0.496E-01    0.213E-02
DAV:   7    -0.128181337658E+03   -0.48279E-04   -0.66300E-04  4688   0.145E-01    0.216E-02
DAV:   8    -0.128181335276E+03    0.23820E-05   -0.84049E-05  4504   0.753E-02
  27 F= -.12818134E+03 E0= -.12814126E+03  d E =-.180079E-01
quench:  g(F)=  0.000E+00 g(S)=  0.000E+00 dE (1.order)= 0.000E+00
 bond charge predicted
       N       E                     dE             d eps       ncg     rms          rms(c)
DAV:   1    -0.128181946498E+03   -0.60884E-03   -0.45173E-01  4464   0.134E+00    0.405E-02
DAV:   2    -0.128182185637E+03   -0.23914E-03   -0.28041E-03  5480   0.263E-01    0.378E-02
DAV:   3    -0.128182199044E+03   -0.13407E-04   -0.37518E-04  4816   0.290E-01    0.265E-02
DAV:   4    -0.128182189664E+03    0.93792E-05   -0.95503E-05  4768   0.225E-01
  28 F= -.12818219E+03 E0= -.12814214E+03  d E =-.854388E-03
quench:  g(F)=  0.000E+00 g(S)=  0.000E+00 dE (1.order)= 0.000E+00
 bond charge predicted
       N       E                     dE             d eps       ncg     rms          rms(c)
DAV:   1    -0.128182268408E+03   -0.69365E-04   -0.41576E-01  4464   0.132E+00    0.423E-02
DAV:   2    -0.128182462529E+03   -0.19412E-03   -0.22279E-03  5312   0.285E-01    0.387E-02
DAV:   3    -0.128182478223E+03   -0.15694E-04   -0.42751E-04  4808   0.368E-01    0.328E-02
DAV:   4    -0.128182445022E+03    0.33201E-04   -0.93928E-05  4784   0.211E-01    0.153E-02
DAV:   5    -0.128182442777E+03    0.22454E-05   -0.54813E-05  4336   0.106E-01
  29 F= -.12818244E+03 E0= -.12814250E+03  d E =-.253112E-03
quench:  g(F)=  0.000E+00 g(S)=  0.000E+00 dE (1.order)= 0.000E+00
 bond charge predicted
       N       E                     dE             d eps       ncg     rms          rms(c)
DAV:   1    -0.128182282678E+03    0.16234E-03   -0.57762E-01  4616   0.144E+00    0.346E-02
DAV:   2    -0.128182567840E+03   -0.28516E-03   -0.31503E-03  4872   0.182E-01    0.295E-02
DAV:   3    -0.128182567712E+03    0.12768E-06   -0.17977E-04  4768   0.171E-01    0.236E-02
DAV:   4    -0.128182561183E+03    0.65289E-05   -0.43965E-05  3360   0.155E-01
  30 F= -.12818256E+03 E0= -.12814259E+03  d E =-.118406E-03
quench:  g(F)=  0.000E+00 g(S)=  0.000E+00 dE (1.order)= 0.000E+00
 bond charge predicted
       N       E                     dE             d eps       ncg     rms          rms(c)
DAV:   1    -0.128177431613E+03    0.51361E-02   -0.95666E+00  4480   0.559E+00    0.130E-01
DAV:   2    -0.128182351753E+03   -0.49201E-02   -0.53228E-02  4920   0.672E-01    0.116E-01
DAV:   3    -0.128182283708E+03    0.68045E-04   -0.21023E-03  5024   0.635E-01    0.925E-02
DAV:   4    -0.128182177476E+03    0.10623E-03   -0.58042E-04  4888   0.597E-01    0.760E-02
DAV:   5    -0.128182021054E+03    0.15642E-03   -0.55998E-04  7744   0.438E-01    0.445E-02
DAV:   6    -0.128181941177E+03    0.79877E-04   -0.45832E-04  6720   0.258E-01    0.186E-02
DAV:   7    -0.128181946253E+03   -0.50761E-05   -0.14085E-04  4752   0.680E-02    0.101E-02
DAV:   8    -0.128181942615E+03    0.36385E-05   -0.11337E-05  2744   0.414E-02
  31 F= -.12818194E+03 E0= -.12814194E+03  d E =0.618568E-03
quench:  g(F)=  0.000E+00 g(S)=  0.000E+00 dE (1.order)= 0.000E+00
 bond charge predicted
       N       E                     dE             d eps       ncg     rms          rms(c)
DAV:   1    -0.128048695944E+03    0.13325E+00   -0.97000E+01  4464   0.186E+01    0.620E-01
DAV:   2    -0.128114449104E+03   -0.65753E-01   -0.78383E-01  4728   0.303E+00    0.432E-01
DAV:   3    -0.128115680771E+03   -0.12317E-02   -0.54469E-02  4824   0.226E+00    0.293E-01
DAV:   4    -0.128115778470E+03   -0.97698E-04   -0.12390E-02  4776   0.243E+00    0.255E-01
DAV:   5    -0.128114091660E+03    0.16868E-02   -0.54917E-03  5016   0.189E+00    0.173E-01
DAV:   6    -0.128113279484E+03    0.81218E-03   -0.41683E-03  6528   0.951E-01    0.466E-02
DAV:   7    -0.128113386038E+03   -0.10655E-03   -0.17150E-03  4664   0.326E-01    0.340E-02
DAV:   8    -0.128113383436E+03    0.26022E-05   -0.30588E-04  4744   0.130E-01    0.244E-02
DAV:   9    -0.128113370985E+03    0.12452E-04   -0.10804E-04  4648   0.106E-01    0.117E-02
DAV:  10    -0.128113371519E+03   -0.53408E-06   -0.24629E-05  3296   0.388E-02
  32 F= -.12811337E+03 E0= -.12807265E+03  d E =0.685711E-01
quench:  g(F)=  0.000E+00 g(S)=  0.000E+00 dE (1.order)= 0.000E+00
 bond charge predicted
       N       E                     dE             d eps       ncg     rms          rms(c)
DAV:   1    -0.128156005101E+03   -0.42634E-01   -0.38295E+01  4464   0.121E+01    0.415E-01
DAV:   2    -0.128182222876E+03   -0.26218E-01   -0.30654E-01  5008   0.326E+00    0.471E-01
DAV:   3    -0.128180487282E+03    0.17356E-02   -0.33499E-02  4648   0.227E+00    0.190E-01
DAV:   4    -0.128180699091E+03   -0.21181E-03   -0.47537E-03  4928   0.120E+00    0.169E-01
DAV:   5    -0.128180322100E+03    0.37699E-03   -0.44462E-03  4840   0.161E+00    0.130E-01
DAV:   6    -0.128179727408E+03    0.59469E-03   -0.19496E-03  5616   0.657E-01    0.230E-02
DAV:   7    -0.128179786951E+03   -0.59544E-04   -0.86939E-04  4784   0.172E-01    0.209E-02
DAV:   8    -0.128179799626E+03   -0.12674E-04   -0.26387E-04  4576   0.117E-01    0.142E-02
DAV:   9    -0.128179794326E+03    0.52992E-05   -0.43586E-05  3992   0.383E-02
  33 F= -.12817979E+03 E0= -.12813986E+03  d E =-.664228E-01
quench:  g(F)=  0.000E+00 g(S)=  0.000E+00 dE (1.order)= 0.000E+00
 bond charge predicted
       N       E                     dE             d eps       ncg     rms          rms(c)
DAV:   1    -0.128178644765E+03    0.11549E-02   -0.59240E+00  4512   0.470E+00    0.145E-01
DAV:   2    -0.128182172351E+03   -0.35276E-02   -0.41117E-02  4808   0.938E-01    0.140E-01
DAV:   3    -0.128182180875E+03   -0.85241E-05   -0.43298E-03  4784   0.706E-01    0.748E-02
DAV:   4    -0.128182107035E+03    0.73840E-04   -0.54105E-04  4824   0.318E-01    0.516E-02
DAV:   5    -0.128182269319E+03   -0.16228E-03   -0.54777E-04  5120   0.609E-01    0.627E-02
DAV:   6    -0.128182039850E+03    0.22947E-03   -0.35175E-04  5904   0.478E-01    0.896E-03
DAV:   7    -0.128182051779E+03   -0.11928E-04   -0.14707E-04  4680   0.592E-02    0.805E-03
DAV:   8    -0.128182051365E+03    0.41409E-06   -0.15166E-05  2776   0.351E-02
  34 F= -.12818205E+03 E0= -.12814234E+03  d E =-.225704E-02
quench:  g(F)=  0.000E+00 g(S)=  0.000E+00 dE (1.order)= 0.000E+00
 bond charge predicted
       N       E                     dE             d eps       ncg     rms          rms(c)
DAV:   1    -0.128182170164E+03   -0.11838E-03   -0.26867E-01  4464   0.105E+00    0.297E-02
DAV:   2    -0.128182299122E+03   -0.12896E-03   -0.15116E-03  4648   0.163E-01    0.251E-02
DAV:   3    -0.128182306390E+03   -0.72677E-05   -0.17803E-04  4752   0.186E-01    0.215E-02
DAV:   4    -0.128182298541E+03    0.78484E-05   -0.45379E-05  3664   0.157E-01
  35 F= -.12818230E+03 E0= -.12814247E+03  d E =-.247176E-03
quench:  g(F)=  0.000E+00 g(S)=  0.000E+00 dE (1.order)= 0.000E+00
 bond charge predicted
       N       E                     dE             d eps       ncg     rms          rms(c)
DAV:   1    -0.128182872157E+03   -0.56577E-03   -0.42315E-01  4504   0.135E+00    0.447E-02
DAV:   2    -0.128183071306E+03   -0.19915E-03   -0.23235E-03  5040   0.308E-01    0.401E-02
DAV:   3    -0.128183098812E+03   -0.27505E-04   -0.53435E-04  4656   0.393E-01    0.342E-02
DAV:   4    -0.128183071905E+03    0.26907E-04   -0.13509E-04  4712   0.252E-01    0.184E-02
DAV:   5    -0.128183064842E+03    0.70629E-05   -0.48652E-05  4440   0.127E-01
  36 F= -.12818306E+03 E0= -.12814308E+03  d E =-.766301E-03
quench:  g(F)=  0.000E+00 g(S)=  0.000E+00 dE (1.order)= 0.000E+00
 bond charge predicted
       N       E                     dE             d eps       ncg     rms          rms(c)
DAV:   1    -0.128182974210E+03    0.97695E-04   -0.33892E-01  4528   0.126E+00    0.357E-02
DAV:   2    -0.128183100268E+03   -0.12606E-03   -0.15311E-03  4528   0.188E-01    0.299E-02
DAV:   3    -0.128183101058E+03   -0.78986E-06   -0.17581E-04  4784   0.156E-01    0.230E-02
DAV:   4    -0.128183090628E+03    0.10430E-04   -0.27920E-05  3000   0.121E-01    0.117E-02
DAV:   5    -0.128183090759E+03   -0.13037E-06   -0.24688E-05  2688   0.140E-01
  37 F= -.12818309E+03 E0= -.12814296E+03  d E =-.259168E-04
quench:  g(F)=  0.000E+00 g(S)=  0.000E+00 dE (1.order)= 0.000E+00
 bond charge predicted
       N       E                     dE             d eps       ncg     rms          rms(c)
DAV:   1    -0.128182099676E+03    0.99095E-03   -0.54163E-01  4496   0.156E+00    0.452E-02
DAV:   2    -0.128182305560E+03   -0.20588E-03   -0.24958E-03  4568   0.268E-01    0.403E-02
DAV:   3    -0.128182319325E+03   -0.13765E-04   -0.37758E-04  4744   0.285E-01    0.305E-02
DAV:   4    -0.128182316236E+03    0.30893E-05   -0.13809E-04  4824   0.278E-01    0.241E-02
DAV:   5    -0.128182293130E+03    0.23106E-04   -0.46050E-05  2960   0.190E-01    0.748E-03
DAV:   6    -0.128182291803E+03    0.13274E-05   -0.18253E-05  2832   0.601E-02
  38 F= -.12818229E+03 E0= -.12814212E+03  d E =0.798956E-03
quench:  g(F)=  0.000E+00 g(S)=  0.000E+00 dE (1.order)= 0.000E+00
 bond charge predicted
       N       E                     dE             d eps       ncg     rms          rms(c)
DAV:   1    -0.127884983430E+03    0.29731E+00   -0.19814E+02  4464   0.290E+01    0.106E+00
DAV:   2    -0.128034384257E+03   -0.14940E+00   -0.17499E+00  5216   0.909E+00    0.126E+00
DAV:   3    -0.128014853452E+03    0.19531E-01   -0.20858E-01  4816   0.627E+00    0.453E-01
DAV:   4    -0.128019549618E+03   -0.46962E-02   -0.33526E-02  5320   0.364E+00    0.449E-01
DAV:   5    -0.128012355532E+03    0.71941E-02   -0.27508E-02  4880   0.383E+00    0.248E-01
DAV:   6    -0.128011687212E+03    0.66832E-03   -0.14822E-02  5048   0.950E-01    0.901E-02
DAV:   7    -0.128011666108E+03    0.21104E-04   -0.34867E-03  4880   0.543E-01    0.494E-02
DAV:   8    -0.128011729868E+03   -0.63760E-04   -0.15265E-03  4664   0.279E-01    0.364E-02
DAV:   9    -0.128011727161E+03    0.27069E-05   -0.50002E-04  4592   0.131E-01    0.165E-02
DAV:  10    -0.128011726396E+03    0.76518E-06   -0.44154E-05  4160   0.836E-02
  39 F= -.12801173E+03 E0= -.12797414E+03  d E =0.170565E+00
quench:  g(F)=  0.000E+00 g(S)=  0.000E+00 dE (1.order)= 0.000E+00
 bond charge predicted
       N       E                     dE             d eps       ncg     rms          rms(c)
DAV:   1    -0.128089237102E+03   -0.77510E-01   -0.13734E+02  4464   0.234E+01    0.750E-01
DAV:   2    -0.128175537452E+03   -0.86300E-01   -0.10199E+00  4624   0.439E+00    0.696E-01
DAV:   3    -0.128173533696E+03    0.20038E-02   -0.88429E-02  4832   0.358E+00    0.371E-01
DAV:   4    -0.128172566202E+03    0.96749E-03   -0.14317E-02  4872   0.221E+00    0.291E-01
DAV:   5    -0.128173532591E+03   -0.96639E-03   -0.12641E-02  4968   0.299E+00    0.276E-01
DAV:   6    -0.128169971590E+03    0.35610E-02   -0.74358E-03  7432   0.175E+00    0.470E-02
DAV:   7    -0.128170241067E+03   -0.26948E-03   -0.34168E-03  4712   0.297E-01    0.532E-02
DAV:   8    -0.128170215099E+03    0.25968E-04   -0.60117E-04  4672   0.249E-01    0.329E-02
DAV:   9    -0.128170195328E+03    0.19771E-04   -0.61365E-05  4616   0.640E-02    0.196E-02
DAV:  10    -0.128170184395E+03    0.10932E-04   -0.81798E-05  4616   0.634E-02    0.610E-03
DAV:  11    -0.128170184913E+03   -0.51746E-06   -0.12432E-05  2728   0.438E-02
  40 F= -.12817018E+03 E0= -.12813003E+03  d E =-.158459E+00
quench:  g(F)=  0.000E+00 g(S)=  0.000E+00 dE (1.order)= 0.000E+00
 bond charge predicted
       N       E                     dE             d eps       ncg     rms          rms(c)
DAV:   1    -0.128156048761E+03    0.14136E-01   -0.31675E+01  4464   0.113E+01    0.354E-01
DAV:   2    -0.128173467854E+03   -0.17419E-01   -0.21142E-01  4632   0.170E+00    0.249E-01
DAV:   3    -0.128173756919E+03   -0.28907E-03   -0.14526E-02  4792   0.143E+00    0.183E-01
DAV:   4    -0.128173795506E+03   -0.38586E-04   -0.45901E-03  4856   0.158E+00    0.150E-01
DAV:   5    -0.128173237495E+03    0.55801E-03   -0.24455E-03  5000   0.134E+00    0.101E-01
DAV:   6    -0.128172875766E+03    0.36173E-03   -0.12826E-03  7216   0.605E-01    0.177E-02
DAV:   7    -0.128172921572E+03   -0.45806E-04   -0.58520E-04  4712   0.155E-01    0.213E-02
DAV:   8    -0.128172919176E+03    0.23959E-05   -0.83527E-05  4680   0.855E-02
  41 F= -.12817292E+03 E0= -.12813194E+03  d E =-.273426E-02
quench:  g(F)=  0.000E+00 g(S)=  0.000E+00 dE (1.order)= 0.000E+00
 bond charge predicted
       N       E                     dE             d eps       ncg     rms          rms(c)
DAV:   1    -0.128179020824E+03   -0.60993E-02   -0.38119E+00  4464   0.396E+00    0.116E-01
DAV:   2    -0.128181001490E+03   -0.19807E-02   -0.22616E-02  4656   0.661E-01    0.102E-01
DAV:   3    -0.128181034944E+03   -0.33454E-04   -0.23304E-03  4792   0.588E-01    0.715E-02
DAV:   4    -0.128181013201E+03    0.21743E-04   -0.47957E-04  4840   0.512E-01    0.506E-02
DAV:   5    -0.128180956114E+03    0.57088E-04   -0.35814E-04  5168   0.519E-01    0.351E-02
DAV:   6    -0.128180901458E+03    0.54656E-04   -0.19032E-04  6416   0.238E-01    0.812E-03
DAV:   7    -0.128180906403E+03   -0.49456E-05   -0.80787E-05  4720   0.530E-02
  42 F= -.12818091E+03 E0= -.12814044E+03  d E =-.798723E-02
quench:  g(F)=  0.000E+00 g(S)=  0.000E+00 dE (1.order)= 0.000E+00
 bond charge predicted
       N       E                     dE             d eps       ncg     rms          rms(c)
DAV:   1    -0.128180852734E+03    0.48723E-04   -0.37730E+00  4464   0.392E+00    0.113E-01
DAV:   2    -0.128182801329E+03   -0.19486E-02   -0.21981E-02  4592   0.637E-01    0.980E-02
DAV:   3    -0.128182844246E+03   -0.42916E-04   -0.21479E-03  4808   0.603E-01    0.733E-02
DAV:   4    -0.128182815572E+03    0.28674E-04   -0.50652E-04  4744   0.545E-01    0.514E-02
DAV:   5    -0.128182744504E+03    0.71067E-04   -0.32182E-04  5272   0.491E-01    0.323E-02
DAV:   6    -0.128182702367E+03    0.42137E-04   -0.17989E-04  6400   0.217E-01    0.858E-03
DAV:   7    -0.128182706288E+03   -0.39205E-05   -0.73176E-05  4728   0.578E-02
  43 F= -.12818271E+03 E0= -.12814276E+03  d E =-.179988E-02
quench:  g(F)=  0.000E+00 g(S)=  0.000E+00 dE (1.order)= 0.000E+00
 bond charge predicted
       N       E                     dE             d eps       ncg     rms          rms(c)
DAV:   1    -0.128182688364E+03    0.14004E-04   -0.73923E-02  4600   0.532E-01    0.146E-02
DAV:   2    -0.128182728048E+03   -0.39684E-04   -0.43057E-04  5192   0.851E-02    0.129E-02
DAV:   3    -0.128182730053E+03   -0.20052E-05   -0.44187E-05  4168   0.996E-02
  44 F= -.12818273E+03 E0= -.12814285E+03  d E =-.237650E-04
quench:  g(F)=  0.000E+00 g(S)=  0.000E+00 dE (1.order)= 0.000E+00
 bond charge predicted
       N       E                     dE             d eps       ncg     rms          rms(c)
DAV:   1    -0.128165178222E+03    0.17550E-01   -0.20718E+01  4464   0.900E+00    0.248E-01
DAV:   2    -0.128174991075E+03   -0.98129E-02   -0.11083E-01  5112   0.140E+00    0.232E-01
DAV:   3    -0.128174904156E+03    0.86919E-04   -0.10283E-02  4752   0.134E+00    0.163E-01
DAV:   4    -0.128174675225E+03    0.22893E-03   -0.22651E-03  5128   0.112E+00    0.122E-01
DAV:   5    -0.128174347856E+03    0.32737E-03   -0.17300E-03  5832   0.108E+00    0.800E-02
DAV:   6    -0.128174101591E+03    0.24626E-03   -0.13377E-03  7088   0.528E-01    0.209E-02
DAV:   7    -0.128174125271E+03   -0.23679E-04   -0.44900E-04  4624   0.144E-01    0.172E-02
DAV:   8    -0.128174123993E+03    0.12779E-05   -0.94517E-05  4504   0.640E-02
  45 F= -.12817412E+03 E0= -.12813510E+03  d E =0.860606E-02
quench:  g(F)=  0.000E+00 g(S)=  0.000E+00 dE (1.order)= 0.000E+00
 bond charge predicted
       N       E                     dE             d eps       ncg     rms          rms(c)
DAV:   1    -0.128178986009E+03   -0.48607E-02   -0.59944E+00  4464   0.493E+00    0.137E-01
DAV:   2    -0.128181832778E+03   -0.28468E-02   -0.32672E-02  4632   0.698E-01    0.113E-01
DAV:   3    -0.128181846652E+03   -0.13874E-04   -0.25849E-03  4832   0.641E-01    0.891E-02
DAV:   4    -0.128181774593E+03    0.72058E-04   -0.69156E-04  4856   0.643E-01    0.617E-02
DAV:   5    -0.128181700397E+03    0.74197E-04   -0.52626E-04  5976   0.628E-01    0.427E-02
DAV:   6    -0.128181609973E+03    0.90423E-04   -0.31432E-04  6960   0.326E-01    0.124E-02
DAV:   7    -0.128181613580E+03   -0.36064E-05   -0.10492E-04  4824   0.804E-02    0.739E-03
DAV:   8    -0.128181613806E+03   -0.22654E-06   -0.23421E-05  2936   0.278E-02
  46 F= -.12818161E+03 E0= -.12814204E+03  d E =-.748981E-02
quench:  g(F)=  0.000E+00 g(S)=  0.000E+00 dE (1.order)= 0.000E+00
 bond charge predicted
       N       E                     dE             d eps       ncg     rms          rms(c)
DAV:   1    -0.128182149131E+03   -0.53555E-03   -0.77196E-01  4560   0.177E+00    0.517E-02
DAV:   2    -0.128182552759E+03   -0.40363E-03   -0.46646E-03  4520   0.275E-01    0.428E-02
DAV:   3    -0.128182556219E+03   -0.34595E-05   -0.40240E-04  4624   0.215E-01    0.306E-02
DAV:   4    -0.128182540146E+03    0.16073E-04   -0.56772E-05  4560   0.145E-01    0.180E-02
DAV:   5    -0.128182561147E+03   -0.21001E-04   -0.70721E-05  2952   0.236E-01    0.223E-02
DAV:   6    -0.128182529245E+03    0.31902E-04   -0.43200E-05  2912   0.183E-01    0.306E-03
DAV:   7    -0.128182531149E+03   -0.19038E-05   -0.19762E-05  3008   0.226E-02
  47 F= -.12818253E+03 E0= -.12814272E+03  d E =-.917343E-03
quench:  g(F)=  0.000E+00 g(S)=  0.000E+00 dE (1.order)= 0.000E+00
 bond charge predicted
       N       E                     dE             d eps       ncg     rms          rms(c)
DAV:   1    -0.128177424718E+03    0.51045E-02   -0.69085E+00  4528   0.556E+00    0.159E-01
DAV:   2    -0.128180167451E+03   -0.27427E-02   -0.34526E-02  4560   0.777E-01    0.128E-01
DAV:   3    -0.128180126083E+03    0.41368E-04   -0.32015E-03  4808   0.629E-01    0.923E-02
DAV:   4    -0.128179918875E+03    0.20721E-03   -0.53029E-04  4936   0.384E-01    0.432E-02
DAV:   5    -0.128179886811E+03    0.32064E-04   -0.33844E-04  6232   0.109E-01    0.113E-02
DAV:   6    -0.128179895350E+03   -0.85388E-05   -0.56487E-05  3848   0.164E-01
  48 F= -.12817990E+03 E0= -.12813945E+03  d E =0.263580E-02
quench:  g(F)=  0.000E+00 g(S)=  0.000E+00 dE (1.order)= 0.000E+00
 bond charge predicted
       N       E                     dE             d eps       ncg     rms          rms(c)
DAV:   1    -0.127945007701E+03    0.23488E+00   -0.16780E+02  4464   0.269E+01    0.934E-01
DAV:   2    -0.128056271038E+03   -0.11126E+00   -0.13005E+00  5112   0.691E+00    0.992E-01
DAV:   3    -0.128048645431E+03    0.76256E-02   -0.16200E-01  4792   0.564E+00    0.453E-01
DAV:   4    -0.128052154747E+03   -0.35093E-02   -0.31017E-02  5072   0.408E+00    0.430E-01
DAV:   5    -0.128044717435E+03    0.74373E-02   -0.20931E-02  4968   0.351E+00    0.207E-01
DAV:   6    -0.128044390824E+03    0.32661E-03   -0.12570E-02  5064   0.901E-01    0.655E-02
DAV:   7    -0.128044604678E+03   -0.21385E-03   -0.38397E-03  4776   0.450E-01    0.532E-02
DAV:   8    -0.128044611359E+03   -0.66811E-05   -0.10165E-03  4656   0.252E-01    0.279E-02
DAV:   9    -0.128044594619E+03    0.16739E-04   -0.18805E-04  4648   0.827E-02    0.145E-02
DAV:  10    -0.128044590632E+03    0.39872E-05   -0.18029E-05  2960   0.883E-02
  49 F= -.12804459E+03 E0= -.12800773E+03  d E =0.135305E+00
quench:  g(F)=  0.000E+00 g(S)=  0.000E+00 dE (1.order)= 0.000E+00
 bond charge predicted
       N       E                     dE             d eps       ncg     rms          rms(c)
DAV:   1    -0.128014434877E+03    0.30160E-01   -0.23771E+02  4464   0.289E+01    0.904E-01
DAV:   2    -0.128188661472E+03   -0.17423E+00   -0.19741E+00  4736   0.537E+00    0.844E-01
DAV:   3    -0.128185719742E+03    0.29417E-02   -0.13777E-01  4760   0.393E+00    0.453E-01
DAV:   4    -0.128183177295E+03    0.25424E-02   -0.19418E-02  4832   0.186E+00    0.359E-01
DAV:   5    -0.128183385260E+03   -0.20796E-03   -0.12972E-02  5192   0.250E+00    0.286E-01
DAV:   6    -0.128180547844E+03    0.28374E-02   -0.12398E-02  6032   0.263E+00    0.780E-02
DAV:   7    -0.128180296384E+03    0.25146E-03   -0.39741E-03  6616   0.905E-01    0.527E-02
DAV:   8    -0.128180326152E+03   -0.29768E-04   -0.18631E-03  4696   0.386E-01    0.446E-02
DAV:   9    -0.128180340472E+03   -0.14320E-04   -0.52979E-04  4784   0.136E-01    0.373E-02
DAV:  10    -0.128180297115E+03    0.43357E-04   -0.11368E-04  5056   0.112E-01    0.134E-02
DAV:  11    -0.128180298875E+03   -0.17591E-05   -0.56741E-05  4392   0.745E-02
  50 F= -.12818030E+03 E0= -.12814032E+03  d E =-.135708E+00
quench:  g(F)=  0.000E+00 g(S)=  0.000E+00 dE (1.order)= 0.000E+00
 bond charge predicted
       N       E                     dE             d eps       ncg     rms          rms(c)
DAV:   1    -0.128179749361E+03    0.54775E-03   -0.51657E+00  4464   0.368E+00    0.872E-02
DAV:   2    -0.128182904941E+03   -0.31556E-02   -0.33290E-02  4776   0.472E-01    0.764E-02
DAV:   3    -0.128182875646E+03    0.29295E-04   -0.12001E-03  4752   0.264E-01    0.553E-02
DAV:   4    -0.128182837814E+03    0.37831E-04   -0.13170E-04  4744   0.151E-01    0.458E-02
DAV:   5    -0.128182784908E+03    0.52906E-04   -0.16520E-04  5648   0.175E-01    0.256E-02
DAV:   6    -0.128182782802E+03    0.21064E-05   -0.12433E-04  5088   0.280E-01    0.152E-02
DAV:   7    -0.128182764616E+03    0.18185E-04   -0.38688E-05  3200   0.151E-01    0.645E-03
DAV:   8    -0.128182766430E+03   -0.18140E-05   -0.30266E-05  3656   0.381E-02
  51 F= -.12818277E+03 E0= -.12814276E+03  d E =-.246756E-02
quench:  g(F)=  0.000E+00 g(S)=  0.000E+00 dE (1.order)= 0.000E+00
 bond charge predicted
       N       E                     dE             d eps       ncg     rms          rms(c)
DAV:   1    -0.128167959700E+03    0.14805E-01   -0.21877E+01  4464   0.787E+00    0.209E-01
DAV:   2    -0.128181691571E+03   -0.13732E-01   -0.14930E-01  4640   0.106E+00    0.166E-01
DAV:   3    -0.128181636768E+03    0.54803E-04   -0.66110E-03  4752   0.592E-01    0.117E-01
DAV:   4    -0.128181474164E+03    0.16260E-03   -0.77671E-04  4896   0.421E-01    0.945E-02
DAV:   5    -0.128181435819E+03    0.38345E-04   -0.68053E-04  5424   0.630E-01    0.792E-02
DAV:   6    -0.128181206466E+03    0.22935E-03   -0.80205E-04  7696   0.642E-01    0.232E-02
DAV:   7    -0.128181187256E+03    0.19210E-04   -0.29177E-04  6176   0.224E-01    0.137E-02
DAV:   8    -0.128181188300E+03   -0.10442E-05   -0.10178E-04  4784   0.678E-02    0.102E-02
DAV:   9    -0.128181186225E+03    0.20756E-05   -0.22455E-05  2976   0.328E-02
  52 F= -.12818119E+03 E0= -.12814095E+03  d E =0.158021E-02
quench:  g(F)=  0.000E+00 g(S)=  0.000E+00 dE (1.order)= 0.000E+00
 bond charge predicted
       N       E                     dE             d eps       ncg     rms          rms(c)
DAV:   1    -0.128181256622E+03   -0.68322E-04   -0.29958E+00  4464   0.330E+00    0.840E-02
DAV:   2    -0.128182868103E+03   -0.16115E-02   -0.17419E-02  4864   0.498E-01    0.781E-02
DAV:   3    -0.128182862800E+03    0.53028E-05   -0.11818E-03  4872   0.388E-01    0.542E-02
DAV:   4    -0.128182835359E+03    0.27441E-04   -0.21504E-04  4968   0.323E-01    0.412E-02
DAV:   5    -0.128182833932E+03    0.14268E-05   -0.21377E-04  5440   0.395E-01    0.358E-02
DAV:   6    -0.128182775399E+03    0.58533E-04   -0.16490E-04  6184   0.234E-01    0.968E-03
DAV:   7    -0.128182778295E+03   -0.28962E-05   -0.61260E-05  4560   0.513E-02
  53 F= -.12818278E+03 E0= -.12814284E+03  d E =-.159207E-02
quench:  g(F)=  0.000E+00 g(S)=  0.000E+00 dE (1.order)= 0.000E+00
 bond charge predicted
       N       E                     dE             d eps       ncg     rms          rms(c)
DAV:   1    -0.128172569048E+03    0.10206E-01   -0.15474E+01  4464   0.598E+00    0.136E-01
DAV:   2    -0.128182764849E+03   -0.10196E-01   -0.10563E-01  4704   0.759E-01    0.126E-01
DAV:   3    -0.128182649522E+03    0.11533E-03   -0.29050E-03  4608   0.323E-01    0.928E-02
DAV:   4    -0.128182552622E+03    0.96899E-04   -0.22501E-04  4744   0.195E-01    0.802E-02
DAV:   5    -0.128182448790E+03    0.10383E-03   -0.26716E-04  6104   0.335E-01    0.565E-02
DAV:   6    -0.128182333486E+03    0.11530E-03   -0.40753E-04  7032   0.438E-01    0.279E-02
DAV:   7    -0.128182310946E+03    0.22540E-04   -0.23766E-04  6328   0.184E-01    0.132E-02
DAV:   8    -0.128182311055E+03   -0.10897E-06   -0.57121E-05  4616   0.303E-02
  54 F= -.12818231E+03 E0= -.12814208E+03  d E =0.467240E-03
quench:  g(F)=  0.000E+00 g(S)=  0.000E+00 dE (1.order)= 0.000E+00
 bond charge predicted
       N       E                     dE             d eps       ncg     rms          rms(c)
DAV:   1    -0.127188173608E+03    0.99414E+00   -0.78010E+02  4464   0.531E+01    0.172E+00
DAV:   2    -0.128010047369E+03   -0.82187E+00   -0.88568E+00  5384   0.156E+01    0.211E+00
DAV:   3    -0.127954631972E+03    0.55415E-01   -0.62779E-01  4880   0.103E+01    0.830E-01
DAV:   4    -0.127954451227E+03    0.18075E-03   -0.90647E-02  5328   0.462E+00    0.754E-01
DAV:   5    -0.127947571061E+03    0.68802E-02   -0.50496E-02  4816   0.443E+00    0.571E-01
DAV:   6    -0.127939116865E+03    0.84542E-02   -0.48308E-02  5488   0.168E+00    0.150E-01
DAV:   7    -0.127939809863E+03   -0.69300E-03   -0.11870E-02  4768   0.101E+00    0.132E-01
DAV:   8    -0.127939820407E+03   -0.10544E-04   -0.47542E-03  4624   0.776E-01    0.735E-02
DAV:   9    -0.127939766149E+03    0.54258E-04   -0.77308E-04  4752   0.233E-01    0.332E-02
DAV:  10    -0.127939760004E+03    0.61454E-05   -0.18701E-04  5584   0.132E-01    0.161E-02
DAV:  11    -0.127939770882E+03   -0.10878E-04   -0.11294E-04  4648   0.989E-02    0.955E-03
DAV:  12    -0.127939777462E+03   -0.65800E-05   -0.40283E-05  4168   0.634E-02
  55 F= -.12793978E+03 E0= -.12790276E+03  d E =0.242534E+00
quench:  g(F)=  0.000E+00 g(S)=  0.000E+00 dE (1.order)= 0.000E+00
 bond charge predicted
       N       E                     dE             d eps       ncg     rms          rms(c)
DAV:   1    -0.128039366464E+03   -0.99596E-01   -0.23059E+02  4464   0.320E+01    0.107E+00
DAV:   2    -0.128194627782E+03   -0.15526E+00   -0.18523E+00  4800   0.716E+00    0.112E+00
DAV:   3    -0.128185414248E+03    0.92135E-02   -0.20062E-01  4792   0.577E+00    0.501E-01
DAV:   4    -0.128186318990E+03   -0.90474E-03   -0.30071E-02  5272   0.343E+00    0.424E-01
DAV:   5    -0.128183110064E+03    0.32089E-02   -0.26812E-02  4976   0.422E+00    0.316E-01
DAV:   6    -0.128179371288E+03    0.37388E-02   -0.12903E-02  6720   0.178E+00    0.793E-02
DAV:   7    -0.128179679661E+03   -0.30837E-03   -0.51891E-03  4808   0.499E-01    0.711E-02
DAV:   8    -0.128179728217E+03   -0.48556E-04   -0.21352E-03  4552   0.385E-01    0.424E-02
DAV:   9    -0.128179696651E+03    0.31567E-04   -0.40142E-04  4656   0.130E-01    0.128E-02
DAV:  10    -0.128179701160E+03   -0.45096E-05   -0.71705E-05  4616   0.867E-02
  56 F= -.12817970E+03 E0= -.12813913E+03  d E =-.239924E+00
quench:  g(F)=  0.000E+00 g(S)=  0.000E+00 dE (1.order)= 0.000E+00
 bond charge predicted
       N       E                     dE             d eps       ncg     rms          rms(c)
DAV:   1    -0.128180493418E+03   -0.79677E-03   -0.79236E+00  4480   0.500E+00    0.136E-01
DAV:   2    -0.128185097749E+03   -0.46043E-02   -0.51389E-02  4576   0.694E-01    0.107E-01
DAV:   3    -0.128185131075E+03   -0.33325E-04   -0.29569E-03  4528   0.497E-01    0.770E-02
DAV:   4    -0.128185085129E+03    0.45945E-04   -0.52631E-04  4632   0.443E-01    0.625E-02
DAV:   5    -0.128185061642E+03    0.23487E-04   -0.33796E-04  4944   0.484E-01    0.544E-02
DAV:   6    -0.128184960292E+03    0.10135E-03   -0.35985E-04  7040   0.331E-01    0.139E-02
DAV:   7    -0.128184961282E+03   -0.99031E-06   -0.11020E-04  5328   0.996E-02    0.893E-03
DAV:   8    -0.128184960694E+03    0.58826E-06   -0.41277E-05  4376   0.515E-02
  57 F= -.12818496E+03 E0= -.12814437E+03  d E =-.525953E-02
quench:  g(F)=  0.000E+00 g(S)=  0.000E+00 dE (1.order)= 0.000E+00
 bond charge predicted
       N       E                     dE             d eps       ncg     rms          rms(c)
DAV:   1    -0.128166581918E+03    0.18379E-01   -0.31481E+01  4464   0.957E+00    0.247E-01
DAV:   2    -0.128186473767E+03   -0.19892E-01   -0.21442E-01  4992   0.143E+00    0.227E-01
DAV:   3    -0.128186414895E+03    0.58871E-04   -0.11440E-02  4744   0.107E+00    0.156E-01
DAV:   4    -0.128186219065E+03    0.19583E-03   -0.18427E-03  4824   0.829E-01    0.129E-01
DAV:   5    -0.128185995831E+03    0.22323E-03   -0.10009E-03  5160   0.777E-01    0.109E-01
DAV:   6    -0.128185615720E+03    0.38011E-03   -0.15292E-03  7096   0.510E-01    0.265E-02
DAV:   7    -0.128185640562E+03   -0.24842E-04   -0.47646E-04  5544   0.185E-01    0.175E-02
DAV:   8    -0.128185639058E+03    0.15042E-05   -0.13024E-04  4640   0.908E-02    0.140E-02
DAV:   9    -0.128185635956E+03    0.31018E-05   -0.23204E-05  2984   0.414E-02
  58 F= -.12818564E+03 E0= -.12814558E+03  d E =-.675262E-03
quench:  g(F)=  0.000E+00 g(S)=  0.000E+00 dE (1.order)= 0.000E+00
 bond charge predicted
       N       E                     dE             d eps       ncg     rms          rms(c)
DAV:   1    -0.128186589374E+03   -0.95032E-03   -0.97643E-01  4464   0.204E+00    0.640E-02
DAV:   2    -0.128187056409E+03   -0.46703E-03   -0.56914E-03  4576   0.376E-01    0.561E-02
DAV:   3    -0.128187076327E+03   -0.19919E-04   -0.80545E-04  4760   0.339E-01    0.379E-02
DAV:   4    -0.128187077583E+03   -0.12553E-05   -0.16022E-04  4696   0.297E-01    0.277E-02
DAV:   5    -0.128187051532E+03    0.26051E-04   -0.10398E-04  4456   0.276E-01    0.167E-02
DAV:   6    -0.128187040842E+03    0.10690E-04   -0.42992E-05  3928   0.105E-01    0.395E-03
DAV:   7    -0.128187043108E+03   -0.22658E-05   -0.29468E-05  3616   0.265E-02
  59 F= -.12818704E+03 E0= -.12814719E+03  d E =-.140715E-02
quench:  g(F)=  0.000E+00 g(S)=  0.000E+00 dE (1.order)= 0.000E+00
 bond charge predicted
       N       E                     dE             d eps       ncg     rms          rms(c)
DAV:   1    -0.128187164949E+03   -0.12411E-03   -0.25779E-01  4544   0.105E+00    0.299E-02
DAV:   2    -0.128187273464E+03   -0.10851E-03   -0.13034E-03  4672   0.170E-01    0.272E-02
DAV:   3    -0.128187273431E+03    0.33448E-07   -0.15839E-04  4632   0.136E-01    0.174E-02
DAV:   4    -0.128187267145E+03    0.62859E-05   -0.18086E-05  3160   0.712E-02
  60 F= -.12818727E+03 E0= -.12814744E+03  d E =-.224037E-03
quench:  g(F)=  0.000E+00 g(S)=  0.000E+00 dE (1.order)= 0.000E+00
 bond charge predicted
       N       E                     dE             d eps       ncg     rms          rms(c)
DAV:   1    -0.128187224642E+03    0.48788E-04   -0.85930E-01  4568   0.180E+00    0.479E-02
DAV:   2    -0.128187679418E+03   -0.45478E-03   -0.40797E-03  6192   0.549E-01    0.604E-02
DAV:   3    -0.128187598976E+03    0.80441E-04   -0.90391E-04  4688   0.540E-01    0.343E-02
DAV:   4    -0.128187584700E+03    0.14276E-04   -0.24130E-04  4696   0.169E-01    0.218E-02
DAV:   5    -0.128187584228E+03    0.47174E-06   -0.13464E-04  4808   0.101E-01    0.176E-02
DAV:   6    -0.128187581589E+03    0.26389E-05   -0.73152E-05  4728   0.977E-02
  61 F= -.12818758E+03 E0= -.12814771E+03  d E =-.314444E-03
quench:  g(F)=  0.000E+00 g(S)=  0.000E+00 dE (1.order)= 0.000E+00
 bond charge predicted
       N       E                     dE             d eps       ncg     rms          rms(c)
DAV:   1    -0.128185446680E+03    0.21375E-02   -0.53951E+00  4464   0.443E+00    0.111E-01
DAV:   2    -0.128187910326E+03   -0.24636E-02   -0.27542E-02  5712   0.609E-01    0.103E-01
DAV:   3    -0.128187884637E+03    0.25689E-04   -0.19224E-03  4784   0.601E-01    0.754E-02
DAV:   4    -0.128187813992E+03    0.70645E-04   -0.47000E-04  4960   0.500E-01    0.584E-02
DAV:   5    -0.128187740849E+03    0.73143E-04   -0.33680E-04  6144   0.426E-01    0.402E-02
DAV:   6    -0.128187690082E+03    0.50767E-04   -0.35291E-04  6464   0.219E-01    0.127E-02
DAV:   7    -0.128187693274E+03   -0.31915E-05   -0.90520E-05  4616   0.695E-02
  62 F= -.12818769E+03 E0= -.12814790E+03  d E =-.111685E-03
quench:  g(F)=  0.000E+00 g(S)=  0.000E+00 dE (1.order)= 0.000E+00
 bond charge predicted
       N       E                     dE             d eps       ncg     rms          rms(c)
DAV:   1    -0.128179778883E+03    0.79112E-02   -0.22852E+01  4480   0.892E+00    0.213E-01
DAV:   2    -0.128191018794E+03   -0.11240E-01   -0.12420E-01  4832   0.103E+00    0.183E-01
DAV:   3    -0.128190741611E+03    0.27718E-03   -0.48382E-03  4864   0.853E-01    0.136E-01
DAV:   4    -0.128190596882E+03    0.14473E-03   -0.13609E-03  5064   0.904E-01    0.117E-01
DAV:   5    -0.128190265090E+03    0.33179E-03   -0.13052E-03  7368   0.847E-01    0.759E-02
DAV:   6    -0.128190020800E+03    0.24429E-03   -0.11783E-03  7144   0.473E-01    0.197E-02
DAV:   7    -0.128190041068E+03   -0.20269E-04   -0.32679E-04  4664   0.957E-02    0.160E-02
DAV:   8    -0.128190036336E+03    0.47323E-05   -0.46311E-05  4544   0.643E-02
  63 F= -.12819004E+03 E0= -.12815016E+03  d E =-.234306E-02
quench:  g(F)=  0.000E+00 g(S)=  0.000E+00 dE (1.order)= 0.000E+00
 bond charge predicted
       N       E                     dE             d eps       ncg     rms          rms(c)
DAV:   1    -0.128189737468E+03    0.30360E-03   -0.16579E+01  4464   0.887E+00    0.249E-01
DAV:   2    -0.128191870048E+03   -0.21326E-02   -0.39753E-02  4696   0.101E+00    0.206E-01
DAV:   3    -0.128191481873E+03    0.38818E-03   -0.62178E-03  4880   0.117E+00    0.158E-01
DAV:   4    -0.128191732138E+03   -0.25026E-03   -0.34032E-03  7256   0.143E+00    0.112E-01
DAV:   5    -0.128190659013E+03    0.10731E-02   -0.22893E-03  8312   0.115E+00    0.486E-02
DAV:   6    -0.128190641400E+03    0.17612E-04   -0.55285E-04  5312   0.213E-01    0.219E-02
DAV:   7    -0.128190641039E+03    0.36074E-06   -0.14039E-04  4536   0.680E-02    0.115E-02
DAV:   8    -0.128190640282E+03    0.75743E-06   -0.25208E-05  3224   0.405E-02
  64 F= -.12819064E+03 E0= -.12815056E+03  d E =-.603946E-03
quench:  g(F)=  0.000E+00 g(S)=  0.000E+00 dE (1.order)= 0.000E+00
 bond charge predicted
       N       E                     dE             d eps       ncg     rms          rms(c)
DAV:   1    -0.128185487710E+03    0.51533E-02   -0.11842E+01  4464   0.666E+00    0.160E-01
DAV:   2    -0.128190628673E+03   -0.51410E-02   -0.58196E-02  4744   0.713E-01    0.131E-01
DAV:   3    -0.128190410305E+03    0.21837E-03   -0.20910E-03  4672   0.527E-01    0.992E-02
DAV:   4    -0.128190336649E+03    0.73656E-04   -0.73880E-04  4912   0.669E-01    0.821E-02
DAV:   5    -0.128190247965E+03    0.88684E-04   -0.92692E-04  6792   0.785E-01    0.618E-02
DAV:   6    -0.128190041994E+03    0.20597E-03   -0.65102E-04  7768   0.445E-01    0.151E-02
DAV:   7    -0.128190051022E+03   -0.90272E-05   -0.17928E-04  4760   0.642E-02    0.101E-02
DAV:   8    -0.128190049474E+03    0.15477E-05   -0.15355E-05  2664   0.285E-02
  65 F= -.12819005E+03 E0= -.12815014E+03  d E =0.590808E-03
quench:  g(F)=  0.000E+00 g(S)=  0.000E+00 dE (1.order)= 0.000E+00
 bond charge predicted
       N       E                     dE             d eps       ncg     rms          rms(c)
DAV:   1    -0.128189899011E+03    0.15201E-03   -0.60383E+00  4464   0.533E+00    0.142E-01
DAV:   2    -0.128190617349E+03   -0.71834E-03   -0.13537E-02  4736   0.515E-01    0.111E-01
DAV:   3    -0.128190532320E+03    0.85030E-04   -0.18286E-03  4688   0.760E-01    0.102E-01
DAV:   4    -0.128190442870E+03    0.89449E-04   -0.12195E-03  7016   0.912E-01    0.527E-02
DAV:   5    -0.128190188673E+03    0.25420E-03   -0.72602E-04  8416   0.578E-01    0.240E-02
DAV:   6    -0.128190180132E+03    0.85405E-05   -0.15303E-04  5528   0.133E-01    0.991E-03
DAV:   7    -0.128190182278E+03   -0.21456E-05   -0.51410E-05  4336   0.413E-02
  66 F= -.12819018E+03 E0= -.12815045E+03  d E =-.132804E-03
quench:  g(F)=  0.000E+00 g(S)=  0.000E+00 dE (1.order)= 0.000E+00
 bond charge predicted
       N       E                     dE             d eps       ncg     rms          rms(c)
DAV:   1    -0.128190429692E+03   -0.24956E-03   -0.58022E-01  4480   0.165E+00    0.455E-02
DAV:   2    -0.128190528500E+03   -0.98808E-04   -0.16521E-03  4552   0.167E-01    0.338E-02
DAV:   3    -0.128190506023E+03    0.22476E-04   -0.14923E-04  4832   0.159E-01    0.267E-02
DAV:   4    -0.128190492927E+03    0.13096E-04   -0.75740E-05  4808   0.194E-01    0.155E-02
DAV:   5    -0.128190490364E+03    0.25633E-05   -0.50765E-05  2944   0.195E-01
  67 F= -.12819049E+03 E0= -.12815064E+03  d E =-.308086E-03
quench:  g(F)=  0.000E+00 g(S)=  0.000E+00 dE (1.order)= 0.000E+00
 reached required accuracy - stopping structural energy minimisation
