<?xml version="1.0" encoding="ISO-8859-1"?>
<modeling>
 <generator>
  <i name="program" type="string">vasp </i>
  <i name="version" type="string">5.4.1  </i>
  <i name="subversion" type="string">05Feb16 (build Nov 22 2018 20:17:51) complex                          parallel </i>
  <i name="platform" type="string">IFC91_ompi </i>
  <i name="date" type="string">2018 11 24 </i>
  <i name="time" type="string">20:46:14 </i>
 </generator>
 <incar>
  <i type="int" name="ISTART">     0</i>
  <i type="string" name="PREC">normal</i>
  <i type="int" name="NELM">   400</i>
  <i type="int" name="IBRION">     3</i>
  <i name="EDIFF">      0.00001000</i>
  <i name="EDIFFG">     -0.02000000</i>
  <i type="int" name="NSW">   500</i>
  <i type="int" name="ISIF">     2</i>
  <i name="ENCUT">    500.00000000</i>
  <i name="POTIM">      0.00000000</i>
  <i type="string" name="LREAL">Auto</i>
  <i type="int" name="ISMEAR">     0</i>
  <i name="SIGMA">      0.10000000</i>
  <i type="logical" name="LWAVE"> F  </i>
  <i type="logical" name="LCHARG"> F  </i>
  <v type="int" name="KPOINT_BSE">    -1     0     0     0</v>
  <i type="int" name="NELM">   400</i>
  <i type="logical" name="LDIPOL"> T  </i>
  <i type="int" name="IDIPOL">     3</i>
 </incar>
 <kpoints>
  <generation param="Gamma">
   <v type="int" name="divisions">       5        5        1 </v>
   <v name="usershift">      0.00000000       0.00000000       0.00000000 </v>
   <v name="genvec1">      0.20000000       0.00000000       0.00000000 </v>
   <v name="genvec2">      0.00000000       0.20000000       0.00000000 </v>
   <v name="genvec3">      0.00000000       0.00000000       1.00000000 </v>
   <v name="shift">      0.00000000       0.00000000       0.00000000 </v>
  </generation>
  <varray name="kpointlist" >
   <v>       0.00000000       0.00000000       0.00000000 </v>
   <v>       0.20000000      -0.00000000       0.00000000 </v>
   <v>       0.40000000      -0.00000000       0.00000000 </v>
   <v>       0.20000000       0.20000000       0.00000000 </v>
   <v>       0.40000000       0.20000000       0.00000000 </v>
   <v>      -0.40000000       0.20000000       0.00000000 </v>
   <v>      -0.20000000       0.20000000       0.00000000 </v>
   <v>       0.40000000       0.40000000       0.00000000 </v>
   <v>      -0.40000000       0.40000000       0.00000000 </v>
  </varray>
  <varray name="weights" >
   <v>       0.04000000 </v>
   <v>       0.16000000 </v>
   <v>       0.16000000 </v>
   <v>       0.08000000 </v>
   <v>       0.16000000 </v>
   <v>       0.16000000 </v>
   <v>       0.08000000 </v>
   <v>       0.08000000 </v>
   <v>       0.08000000 </v>
  </varray>
 </kpoints>
 <parameters>
  <separator name="general" >
   <i type="string" name="SYSTEM">unknown system</i>
   <i type="logical" name="LCOMPAT"> F  </i>
  </separator>
  <separator name="electronic" >
   <i type="string" name="PREC">normal</i>
   <i name="ENMAX">    500.00000000</i>
   <i name="ENAUG">    516.45600000</i>
   <i name="EDIFF">      0.00001000</i>
   <i type="int" name="IALGO">    38</i>
   <i type="int" name="IWAVPR">    11</i>
   <i type="int" name="NBANDS">   248</i>
   <i name="NELECT">    407.00000000</i>
   <i type="int" name="TURBO">     0</i>
   <i type="int" name="IRESTART">     0</i>
   <i type="int" name="NREBOOT">     0</i>
   <i type="int" name="NMIN">     0</i>
   <i name="EREF">      0.00000000</i>
   <separator name="electronic smearing" >
    <i type="int" name="ISMEAR">     0</i>
    <i name="SIGMA">      0.10000000</i>
    <i name="KSPACING">      0.50000000</i>
    <i type="logical" name="KGAMMA"> T  </i>
   </separator>
   <separator name="electronic projectors" >
    <i type="logical" name="LREAL"> T  </i>
    <v name="ROPT">     -0.00050000     -0.00050000</v>
    <i type="int" name="LMAXPAW">  -100</i>
    <i type="int" name="LMAXMIX">     2</i>
    <i type="logical" name="NLSPLINE"> F  </i>
   </separator>
   <separator name="electronic startup" >
    <i type="int" name="ISTART">     0</i>
    <i type="int" name="ICHARG">     2</i>
    <i type="int" name="INIWAV">     1</i>
   </separator>
   <separator name="electronic spin" >
    <i type="int" name="ISPIN">     1</i>
    <i type="logical" name="LNONCOLLINEAR"> F  </i>
    <v name="MAGMOM">      1.00000000      1.00000000      1.00000000      1.00000000      1.00000000      1.00000000      1.00000000      1.00000000      1.00000000      1.00000000      1.00000000      1.00000000      1.00000000      1.00000000      1.00000000      1.00000000      1.00000000      1.00000000      1.00000000      1.00000000
      1.00000000      1.00000000      1.00000000      1.00000000      1.00000000      1.00000000      1.00000000      1.00000000      1.00000000      1.00000000      1.00000000      1.00000000      1.00000000      1.00000000      1.00000000      1.00000000      1.00000000</v>
    <i name="NUPDOWN">     -1.00000000</i>
    <i type="logical" name="LSORBIT"> F  </i>
    <v name="SAXIS">      0.00000000      0.00000000      1.00000000</v>
    <i type="logical" name="LSPIRAL"> F  </i>
    <v name="QSPIRAL">      0.00000000      0.00000000      0.00000000</v>
    <i type="logical" name="LZEROZ"> F  </i>
   </separator>
   <separator name="electronic exchange-correlation" >
    <i type="logical" name="LASPH"> F  </i>
    <i type="logical" name="LMETAGGA"> F  </i>
   </separator>
   <separator name="electronic convergence" >
    <i type="int" name="NELM">   400</i>
    <i type="int" name="NELMDL">    -5</i>
    <i type="int" name="NELMIN">     2</i>
    <i name="ENINI">    500.00000000</i>
    <separator name="electronic convergence detail" >
     <i type="logical" name="LDIAG"> T  </i>
     <i type="logical" name="LSUBROT"> F  </i>
     <i name="WEIMIN">      0.00100000</i>
     <i name="EBREAK">      0.00000001</i>
     <i name="DEPER">      0.30000000</i>
     <i type="int" name="NRMM">     4</i>
     <i name="TIME">      0.40000000</i>
    </separator>
   </separator>
   <separator name="electronic mixer" >
    <i name="AMIX">      0.40000000</i>
    <i name="BMIX">      1.00000000</i>
    <i name="AMIN">      0.10000000</i>
    <i name="AMIX_MAG">      1.60000000</i>
    <i name="BMIX_MAG">      1.00000000</i>
    <separator name="electronic mixer details" >
     <i type="int" name="IMIX">     4</i>
     <i type="logical" name="MIXFIRST"> F  </i>
     <i type="int" name="MAXMIX">   -45</i>
     <i name="WC">    100.00000000</i>
     <i type="int" name="INIMIX">     1</i>
     <i type="int" name="MIXPRE">     1</i>
     <i type="int" name="MREMOVE">     5</i>
    </separator>
   </separator>
   <separator name="electronic dipolcorrection" >
    <i type="logical" name="LDIPOL"> T  </i>
    <i type="logical" name="LMONO"> F  </i>
    <i type="int" name="IDIPOL">     3</i>
    <i name="EPSILON">      1.00000000</i>
    <v name="DIPOL">   -100.00000000   -100.00000000   -100.00000000</v>
    <i name="EFIELD">      0.00000000</i>
   </separator>
  </separator>
  <separator name="grids" >
   <i type="int" name="NGX">    42</i>
   <i type="int" name="NGY">    42</i>
   <i type="int" name="NGZ">   140</i>
   <i type="int" name="NGXF">    84</i>
   <i type="int" name="NGYF">    84</i>
   <i type="int" name="NGZF">   280</i>
   <i type="logical" name="ADDGRID"> F  </i>
  </separator>
  <separator name="ionic" >
   <i type="int" name="NSW">   500</i>
   <i type="int" name="IBRION">     3</i>
   <i type="int" name="ISIF">     2</i>
   <i name="PSTRESS">      0.00000000</i>
   <i name="EDIFFG">     -0.02000000</i>
   <i type="int" name="NFREE">     0</i>
   <i name="POTIM">      0.00000000</i>
   <i name="SMASS">     -3.00000000</i>
   <i name="SCALEE">      1.00000000</i>
  </separator>
  <separator name="ionic md" >
   <i name="TEBEG">      0.00010000</i>
   <i name="TEEND">      0.00010000</i>
   <i type="int" name="NBLOCK">     1</i>
   <i type="int" name="KBLOCK">   500</i>
   <i type="int" name="NPACO">   256</i>
   <i name="APACO">     16.00000000</i>
  </separator>
  <separator name="symmetry" >
   <i type="int" name="ISYM">     2</i>
   <i name="SYMPREC">      0.00001000</i>
  </separator>
  <separator name="dos" >
   <i type="logical" name="LORBIT"> F  </i>
   <v name="RWIGS">     -1.00000000     -1.00000000</v>
   <i type="int" name="NEDOS">   301</i>
   <i name="EMIN">     10.00000000</i>
   <i name="EMAX">    -10.00000000</i>
   <i name="EFERMI">      0.00000000</i>
  </separator>
  <separator name="writing" >
   <i type="int" name="NWRITE">     2</i>
   <i type="logical" name="LWAVE"> F  </i>
   <i type="logical" name="LCHARG"> F  </i>
   <i type="logical" name="LPARD"> F  </i>
   <i type="logical" name="LVTOT"> F  </i>
   <i type="logical" name="LVHAR"> F  </i>
   <i type="logical" name="LELF"> F  </i>
   <i type="logical" name="LOPTICS"> F  </i>
   <v name="STM">      0.00000000      0.00000000      0.00000000      0.00000000      0.00000000      0.00000000      0.00000000</v>
  </separator>
  <separator name="performance" >
   <i type="int" name="NPAR">     8</i>
   <i type="int" name="NSIM">     4</i>
   <i type="int" name="NBLK">    -1</i>
   <i type="logical" name="LPLANE"> T  </i>
   <i type="logical" name="LSCALAPACK"> T  </i>
   <i type="logical" name="LSCAAWARE"> F  </i>
   <i type="logical" name="LSCALU"> F  </i>
   <i type="logical" name="LASYNC"> F  </i>
   <i type="logical" name="LORBITALREAL"> F  </i>
  </separator>
  <separator name="miscellaneous" >
   <i type="int" name="IDIOT">     3</i>
   <i type="logical" name="LMUSIC"> F  </i>
   <v name="POMASS">     63.54600000    107.86800000</v>
   <v name="DARWINR">      0.00000000      0.00000000</v>
   <v name="DARWINV">      1.00000000      1.00000000</v>
   <i type="logical" name="LCORR"> T  </i>
  </separator>
  <i type="logical" name="GGA_COMPAT"> T  </i>
  <i type="logical" name="LBERRY"> F  </i>
  <i type="int" name="ICORELEVEL">     0</i>
  <i type="logical" name="LDAU"> F  </i>
  <i type="int" name="I_CONSTRAINED_M">     0</i>
  <separator name="electronic exchange-correlation" >
   <i type="string" name="GGA">--</i>
   <i type="int" name="VOSKOWN">     0</i>
   <i type="logical" name="LHFCALC"> F  </i>
   <i type="string" name="PRECFOCK"></i>
   <i type="logical" name="LSYMGRAD"> F  </i>
   <i type="logical" name="LHFONE"> F  </i>
   <i type="logical" name="LRHFCALC"> F  </i>
   <i type="logical" name="LTHOMAS"> F  </i>
   <i type="logical" name="LMODELHF"> F  </i>
   <i name="ENCUT4O">     -1.00000000</i>
   <i type="int" name="EXXOEP">     0</i>
   <i type="int" name="FOURORBIT">     0</i>
   <i name="AEXX">      0.00000000</i>
   <i name="HFALPHA">      0.00000000</i>
   <i name="MCALPHA">      0.00000000</i>
   <i name="ALDAX">      1.00000000</i>
   <i name="AGGAX">      1.00000000</i>
   <i name="ALDAC">      1.00000000</i>
   <i name="AGGAC">      1.00000000</i>
   <i type="int" name="NKREDX">     1</i>
   <i type="int" name="NKREDY">     1</i>
   <i type="int" name="NKREDZ">     1</i>
   <i type="logical" name="SHIFTRED"> F  </i>
   <i type="logical" name="ODDONLY"> F  </i>
   <i type="logical" name="EVENONLY"> F  </i>
   <i type="int" name="LMAXFOCK">     0</i>
   <i type="int" name="NMAXFOCKAE">     0</i>
   <i type="logical" name="LFOCKAEDFT"> F  </i>
   <i name="HFSCREEN">      0.00000000</i>
   <i name="HFSCREENC">      0.00000000</i>
   <i type="int" name="NBANDSGWLOW">     0</i>
  </separator>
  <separator name="vdW DFT" >
   <i type="logical" name="LUSE_VDW"> F  </i>
   <i name="Zab_VDW">     -0.84910000</i>
   <i name="PARAM1">      0.12340000</i>
   <i name="PARAM2">      1.00000000</i>
   <i name="PARAM3">      0.00000000</i>
  </separator>
  <separator name="model GW" >
   <i type="int" name="MODEL_GW">     0</i>
   <i name="MODEL_EPS0">     20.29623396</i>
   <i name="MODEL_ALPHA">      1.00000000</i>
  </separator>
  <separator name="linear response parameters" >
   <i type="logical" name="LEPSILON"> F  </i>
   <i type="logical" name="LRPA"> F  </i>
   <i type="logical" name="LNABLA"> F  </i>
   <i type="logical" name="LVEL"> F  </i>
   <i type="int" name="KINTER">     0</i>
   <i name="CSHIFT">      0.10000000</i>
   <i name="OMEGAMAX">     -1.00000000</i>
   <i name="DEG_THRESHOLD">      0.00200000</i>
  </separator>
  <separator name="orbital magnetization" >
   <i type="logical" name="NUCIND"> F  </i>
   <v name="MAGPOS">      0.00000000      0.00000000      0.00000000</v>
   <i type="logical" name="LNICSALL"> T  </i>
   <i type="logical" name="ORBITALMAG"> F  </i>
   <i type="logical" name="LMAGBLOCH"> F  </i>
   <i type="logical" name="LCHIMAG"> F  </i>
   <i type="logical" name="LGAUGE"> T  </i>
   <i type="int" name="MAGATOM">     0</i>
   <v name="MAGDIPOL">      0.00000000      0.00000000      0.00000000</v>
   <v name="AVECCONST">      0.00000000      0.00000000      0.00000000</v>
  </separator>
  <separator name="response functions" >
   <i type="logical" name="LADDER"> F  </i>
   <i type="logical" name="LFXC"> F  </i>
   <i type="logical" name="LHARTREE"> T  </i>
   <i type="int" name="IBSE">     0</i>
   <v type="int" name="KPOINT">    -1     0     0     0</v>
   <i type="logical" name="LTCTE"> F  </i>
   <i type="logical" name="LTETE"> F  </i>
   <i type="logical" name="LTRIPLET"> F  </i>
   <i type="logical" name="LFXCEPS"> F  </i>
   <i type="logical" name="LFXHEG"> F  </i>
   <i type="int" name="NATURALO">     0</i>
   <i type="logical" name="L2ORDER"> F  </i>
   <i type="logical" name="LUSEW"> F  </i>
   <i name="ENCUTGW">     -2.00000000</i>
   <i name="ENCUTGWSOFT">     -2.00000000</i>
   <i name="ENCUTLF">     -1.00000000</i>
   <i type="int" name="LMAXMP2">    -1</i>
   <i name="SCISSOR">      0.00000000</i>
   <i type="int" name="NOMEGA">     0</i>
   <i type="int" name="NOMEGAR">     0</i>
   <i type="int" name="NBANDSGW">    -1</i>
   <i type="int" name="NBANDSO">    -1</i>
   <i type="int" name="NBANDSV">    -1</i>
   <i type="int" name="NELM">   400</i>
   <i type="int" name="NELMHF">     1</i>
   <i type="int" name="DIM">     3</i>
   <i type="int" name="ANTIRES">     0</i>
   <i name="OMEGAMAX">    -30.00000000</i>
   <i name="OMEGAMIN">    -30.00000000</i>
   <i name="OMEGATL">   -200.00000000</i>
   <i type="int" name="OMEGAGRID">     0</i>
   <i name="CSHIFT">     -0.10000000</i>
   <i type="logical" name="SELFENERGY"> F  </i>
   <i type="logical" name="LSPECTRAL"> F  </i>
   <i type="logical" name="LSPECTRALGW"> F  </i>
   <i type="logical" name="LSINGLES"> F  </i>
   <i type="logical" name="LFERMIGW"> F  </i>
   <i type="logical" name="ODDONLYGW"> F  </i>
   <i type="logical" name="EVENONLYGW"> F  </i>
   <i type="int" name="NKREDLFX">     1</i>
   <i type="int" name="NKREDLFY">     1</i>
   <i type="int" name="NKREDLFZ">     1</i>
   <i type="int" name="MAXMEM">  1800</i>
   <i type="int" name="TELESCOPE">     0</i>
   <i type="int" name="TAUPAR">     1</i>
   <i type="int" name="OMEGAPAR">    -1</i>
   <i name="LAMBDA">      1.00000000</i>
  </separator>
  <separator name="External order field" >
   <i name="OFIELD_KAPPA">      0.00000000</i>
   <v name="OFIELD_K">      0.00000000      0.00000000      0.00000000</v>
   <i name="OFIELD_Q6_NEAR">      0.00000000</i>
   <i name="OFIELD_Q6_FAR">      0.00000000</i>
   <i name="OFIELD_A">      0.00000000</i>
  </separator>
 </parameters>
 <atominfo>
  <atoms>      37 </atoms>
  <types>       2 </types>
  <array name="atoms" >
   <dimension dim="1">ion</dimension>
   <field type="string">element</field>
   <field type="int">atomtype</field>
   <set>
    <rc><c>Cu</c><c>   1</c></rc>
    <rc><c>Cu</c><c>   1</c></rc>
    <rc><c>Cu</c><c>   1</c></rc>
    <rc><c>Cu</c><c>   1</c></rc>
    <rc><c>Cu</c><c>   1</c></rc>
    <rc><c>Cu</c><c>   1</c></rc>
    <rc><c>Cu</c><c>   1</c></rc>
    <rc><c>Cu</c><c>   1</c></rc>
    <rc><c>Cu</c><c>   1</c></rc>
    <rc><c>Cu</c><c>   1</c></rc>
    <rc><c>Cu</c><c>   1</c></rc>
    <rc><c>Cu</c><c>   1</c></rc>
    <rc><c>Cu</c><c>   1</c></rc>
    <rc><c>Cu</c><c>   1</c></rc>
    <rc><c>Cu</c><c>   1</c></rc>
    <rc><c>Cu</c><c>   1</c></rc>
    <rc><c>Cu</c><c>   1</c></rc>
    <rc><c>Cu</c><c>   1</c></rc>
    <rc><c>Cu</c><c>   1</c></rc>
    <rc><c>Cu</c><c>   1</c></rc>
    <rc><c>Cu</c><c>   1</c></rc>
    <rc><c>Cu</c><c>   1</c></rc>
    <rc><c>Cu</c><c>   1</c></rc>
    <rc><c>Cu</c><c>   1</c></rc>
    <rc><c>Cu</c><c>   1</c></rc>
    <rc><c>Cu</c><c>   1</c></rc>
    <rc><c>Cu</c><c>   1</c></rc>
    <rc><c>Cu</c><c>   1</c></rc>
    <rc><c>Cu</c><c>   1</c></rc>
    <rc><c>Cu</c><c>   1</c></rc>
    <rc><c>Cu</c><c>   1</c></rc>
    <rc><c>Cu</c><c>   1</c></rc>
    <rc><c>Cu</c><c>   1</c></rc>
    <rc><c>Cu</c><c>   1</c></rc>
    <rc><c>Cu</c><c>   1</c></rc>
    <rc><c>Cu</c><c>   1</c></rc>
    <rc><c>Ag</c><c>   2</c></rc>
   </set>
  </array>
  <array name="atomtypes" >
   <dimension dim="1">type</dimension>
   <field type="int">atomspertype</field>
   <field type="string">element</field>
   <field>mass</field>
   <field>valence</field>
   <field type="string">pseudopotential</field>
   <set>
    <rc><c>  36</c><c>Cu</c><c>     63.54600000</c><c>     11.00000000</c><c> PAW_GGA Cu 05Jan2001                   </c></rc>
    <rc><c>   1</c><c>Ag</c><c>    107.86800000</c><c>     11.00000000</c><c> PAW_GGA Ag 18Jul2000                   </c></rc>
   </set>
  </array>
 </atominfo>
 <structure name="initialpos" >
  <crystal>
   <varray name="basis" >
    <v>       7.71239996       0.00000000       0.00000000 </v>
    <v>      -3.85619998       6.67913429       0.00000000 </v>
    <v>       0.00000000       0.00000000      24.29719925 </v>
   </varray>
   <i name="volume">   1251.60109432 </i>
   <varray name="rec_basis" >
    <v>       0.12966133       0.07486000       0.00000000 </v>
    <v>       0.00000000       0.14972000       0.00000000 </v>
    <v>       0.00000000       0.00000000       0.04115701 </v>
   </varray>
  </crystal>
  <varray name="positions" >
   <v>       0.33333055       0.66666952       0.99998117 </v>
   <v>       0.33333155       0.99999968       0.99998127 </v>
   <v>       0.00000034       0.66666851       0.99998127 </v>
   <v>       0.00000106       0.99999894       0.99998137 </v>
   <v>       0.33333374       0.33333358       0.99998160 </v>
   <v>       0.66666645       0.66666631       0.99998160 </v>
   <v>       0.66666550       0.99999855       0.99998166 </v>
   <v>       0.00000144       0.33333452       0.99998166 </v>
   <v>       0.66666864       0.33333139       0.99998187 </v>
   <v>       0.44444232       0.22222301       0.08654002 </v>
   <v>       0.77777700       0.55555767       0.08654002 </v>
   <v>       0.11110840       0.55555772       0.08654003 </v>
   <v>       0.44444228       0.88889164       0.08654003 </v>
   <v>       0.44444159       0.55555839       0.08654015 </v>
   <v>       0.77777882       0.22222117       0.08654017 </v>
   <v>       0.11110945       0.88889061       0.08654046 </v>
   <v>       0.11110991       0.22222219       0.08654066 </v>
   <v>       0.77777783       0.88889014       0.08654066 </v>
   <v>       0.25124324       0.08208885       0.17355010 </v>
   <v>       0.91849611       0.74949345       0.17420387 </v>
   <v>       0.91857388       0.08212335       0.17412481 </v>
   <v>       0.25076965       0.74879963       0.17414984 </v>
   <v>       0.58384280       0.41483564       0.17420438 </v>
   <v>       0.58453695       0.08255993       0.17414998 </v>
   <v>       0.91796484       0.41536908       0.17458264 </v>
   <v>       0.25120910       0.41475904       0.17412526 </v>
   <v>       0.58433988       0.74899484       0.17417919 </v>
   <v>       0.36533856       0.63426182       0.25959850 </v>
   <v>       0.36704526       0.96629071       0.25922444 </v>
   <v>       0.03205305       0.63499633       0.26026352 </v>
   <v>       0.36734808       0.30379909       0.25972332 </v>
   <v>       0.69854763       0.63478514       0.25936106 </v>
   <v>       0.02953358       0.96598657       0.25972355 </v>
   <v>       0.69907531       0.96799318       0.25959910 </v>
   <v>       0.03102072       0.30231049       0.26000334 </v>
   <v>       0.69833870       0.30127604       0.26026401 </v>
   <v>       0.22184297       0.11148683       0.34616349 </v>
  </varray>
  <varray name="selective"  type="logical" >
   <v type="logical" >  F  F  F </v>
   <v type="logical" >  F  F  F </v>
   <v type="logical" >  F  F  F </v>
   <v type="logical" >  F  F  F </v>
   <v type="logical" >  F  F  F </v>
   <v type="logical" >  F  F  F </v>
   <v type="logical" >  F  F  F </v>
   <v type="logical" >  F  F  F </v>
   <v type="logical" >  F  F  F </v>
   <v type="logical" >  F  F  F </v>
   <v type="logical" >  F  F  F </v>
   <v type="logical" >  F  F  F </v>
   <v type="logical" >  F  F  F </v>
   <v type="logical" >  F  F  F </v>
   <v type="logical" >  F  F  F </v>
   <v type="logical" >  F  F  F </v>
   <v type="logical" >  F  F  F </v>
   <v type="logical" >  F  F  F </v>
   <v type="logical" >  T  T  T </v>
   <v type="logical" >  T  T  T </v>
   <v type="logical" >  T  T  T </v>
   <v type="logical" >  T  T  T </v>
   <v type="logical" >  T  T  T </v>
   <v type="logical" >  T  T  T </v>
   <v type="logical" >  T  T  T </v>
   <v type="logical" >  T  T  T </v>
   <v type="logical" >  T  T  T </v>
   <v type="logical" >  T  T  T </v>
   <v type="logical" >  T  T  T </v>
   <v type="logical" >  T  T  T </v>
   <v type="logical" >  T  T  T </v>
   <v type="logical" >  T  T  T </v>
   <v type="logical" >  T  T  T </v>
   <v type="logical" >  T  T  T </v>
   <v type="logical" >  T  T  T </v>
   <v type="logical" >  T  T  T </v>
   <v type="logical" >  T  T  T </v>
  </varray>
  <nose>
   <v>      -3.00000000       0.00000000       0.00010000       0.00010000 </v>
  </nose>
 </structure>
 <calculation>
  <scstep>
   <time name="dav">   28.25   28.32</time>
   <time name="total">   28.57   28.64</time>
   <dipole>
    <v name="dipole">      0.00000000       0.00000000       0.00004567 </v>
    <i name="Tr[quadrupol]">  -3851.29830073 </i>
    <i name="Echarged">      0.00000000 </i>
    <i name="Edipol_quadrupol">      0.00000000 </i>
    <i name="Eion">      0.00000000 </i>
   </dipole>
   <energy>
    <i name="alphaZ">   1406.12911432 </i>
    <i name="ewald"> 208777.35389377 </i>
    <i name="hartreedc">-256443.32547735 </i>
    <i name="XCdc">   1553.39023557 </i>
    <i name="pawpsdc">  39856.75882069 </i>
    <i name="pawaedc"> -45014.40712326 </i>
    <i name="eentropy">     -0.06331447 </i>
    <i name="bandstr">   1753.41330873 </i>
    <i name="atom">  51188.86509581 </i>
    <i name="e_fr_energy">   3078.11455381 </i>
    <i name="e_wo_entrp">   3078.17786828 </i>
    <i name="e_0_energy">   3078.14621105 </i>
   </energy>
  </scstep>
  <scstep>
   <time name="dav">   26.88   26.95</time>
   <time name="total">   26.89   26.95</time>
   <dipole>
    <v name="dipole">      0.00000000       0.00000000       0.00004567 </v>
    <i name="Tr[quadrupol]">  -3851.29830073 </i>
    <i name="Echarged">      0.00000000 </i>
    <i name="Edipol_quadrupol">      0.00000000 </i>
    <i name="Eion">      0.00000000 </i>
   </dipole>
   <energy>
    <i name="e_fr_energy">    169.96981585 </i>
    <i name="e_wo_entrp">    170.03695217 </i>
    <i name="e_0_energy">    170.00338401 </i>
   </energy>
  </scstep>
  <scstep>
   <time name="dav">   27.88   27.95</time>
   <time name="total">   27.89   27.95</time>
   <dipole>
    <v name="dipole">      0.00000000       0.00000000      -0.00002424 </v>
    <i name="Tr[quadrupol]">  -3823.71773346 </i>
    <i name="Echarged">      0.00000000 </i>
    <i name="Edipol_quadrupol">      0.00000000 </i>
    <i name="Eion">      0.00000000 </i>
   </dipole>
   <energy>
    <i name="e_fr_energy">   -143.39398621 </i>
    <i name="e_wo_entrp">   -143.25625224 </i>
    <i name="e_0_energy">   -143.32511923 </i>
   </energy>
  </scstep>
  <scstep>
   <time name="dav">   28.56   28.63</time>
   <time name="total">   28.56   28.63</time>
   <dipole>
    <v name="dipole">      0.00000000       0.00000000      -0.00002424 </v>
    <i name="Tr[quadrupol]">  -3823.71773346 </i>
    <i name="Echarged">      0.00000000 </i>
    <i name="Edipol_quadrupol">      0.00000000 </i>
    <i name="Eion">      0.00000000 </i>
   </dipole>
   <energy>
    <i name="e_fr_energy">   -155.50224503 </i>
    <i name="e_wo_entrp">   -155.36514026 </i>
    <i name="e_0_energy">   -155.43369264 </i>
   </energy>
  </scstep>
  <scstep>
   <time name="dav">   28.80   28.87</time>
   <time name="total">   30.14   30.21</time>
   <dipole>
    <v name="dipole">      0.00000000       0.00000000      -0.00002424 </v>
    <i name="Tr[quadrupol]">  -3823.71773346 </i>
    <i name="Echarged">      0.00000000 </i>
    <i name="Edipol_quadrupol">      0.00000000 </i>
    <i name="Eion">      0.00000000 </i>
   </dipole>
   <energy>
    <i name="e_fr_energy">   -155.61189624 </i>
    <i name="e_wo_entrp">   -155.47482681 </i>
    <i name="e_0_energy">   -155.54336153 </i>
   </energy>
  </scstep>
  <scstep>
   <time name="dav">   29.05   29.12</time>
   <time name="total">   30.62   30.69</time>
   <dipole>
    <v name="dipole">      0.00000000       0.00000000      -0.03518723 </v>
    <i name="Tr[quadrupol]">  -3824.19435867 </i>
    <i name="Echarged">      0.00000000 </i>
    <i name="Edipol_quadrupol">      0.00000000 </i>
    <i name="Eion">      0.00000000 </i>
   </dipole>
   <energy>
    <i name="e_fr_energy">   -140.92642347 </i>
    <i name="e_wo_entrp">   -140.83617449 </i>
    <i name="e_0_energy">   -140.88129898 </i>
   </energy>
  </scstep>
  <scstep>
   <time name="dav">   29.51   29.58</time>
   <time name="total">   31.07   31.14</time>
   <dipole>
    <v name="dipole">      0.00000000       0.00000000      -0.23391565 </v>
    <i name="Tr[quadrupol]">  -3826.96511649 </i>
    <i name="Echarged">      0.00000000 </i>
    <i name="Edipol_quadrupol">      0.00000000 </i>
    <i name="Eion">      0.00000000 </i>
   </dipole>
   <energy>
    <i name="e_fr_energy">   -128.04652000 </i>
    <i name="e_wo_entrp">   -127.96354494 </i>
    <i name="e_0_energy">   -128.00503247 </i>
   </energy>
  </scstep>
  <scstep>
   <time name="dav">   30.05   30.13</time>
   <time name="total">   31.50   31.58</time>
   <dipole>
    <v name="dipole">      0.00000000       0.00000000       0.01803384 </v>
    <i name="Tr[quadrupol]">  -3828.31222640 </i>
    <i name="Echarged">      0.00000000 </i>
    <i name="Edipol_quadrupol">      0.00000000 </i>
    <i name="Eion">      0.00000000 </i>
   </dipole>
   <energy>
    <i name="e_fr_energy">   -128.60029263 </i>
    <i name="e_wo_entrp">   -128.51126600 </i>
    <i name="e_0_energy">   -128.55577931 </i>
   </energy>
  </scstep>
  <scstep>
   <time name="dav">   31.84   31.92</time>
   <time name="total">   33.46   33.54</time>
   <dipole>
    <v name="dipole">      0.00000000       0.00000000      -0.28887935 </v>
    <i name="Tr[quadrupol]">  -3827.82327304 </i>
    <i name="Echarged">      0.00000000 </i>
    <i name="Edipol_quadrupol">      0.00000000 </i>
    <i name="Eion">      0.00000000 </i>
   </dipole>
   <energy>
    <i name="e_fr_energy">   -128.10119853 </i>
    <i name="e_wo_entrp">   -128.01845566 </i>
    <i name="e_0_energy">   -128.05982709 </i>
   </energy>
  </scstep>
  <scstep>
   <time name="dav">   34.52   34.60</time>
   <time name="total">   36.17   36.25</time>
   <dipole>
    <v name="dipole">      0.00000000       0.00000000      -0.17942326 </v>
    <i name="Tr[quadrupol]">  -3855.97571592 </i>
    <i name="Echarged">      0.00000000 </i>
    <i name="Edipol_quadrupol">      0.00000000 </i>
    <i name="Eion">      0.00000000 </i>
   </dipole>
   <energy>
    <i name="e_fr_energy">   -128.21873687 </i>
    <i name="e_wo_entrp">   -128.13743215 </i>
    <i name="e_0_energy">   -128.17808451 </i>
   </energy>
  </scstep>
  <scstep>
   <time name="dav">   28.21   28.28</time>
   <time name="total">   29.77   29.85</time>
   <dipole>
    <v name="dipole">      0.00000000       0.00000000      -0.21145640 </v>
    <i name="Tr[quadrupol]">  -3856.46667697 </i>
    <i name="Echarged">      0.00000000 </i>
    <i name="Edipol_quadrupol">      0.00000000 </i>
    <i name="Eion">      0.00000000 </i>
   </dipole>
   <energy>
    <i name="e_fr_energy">   -128.18254261 </i>
    <i name="e_wo_entrp">   -128.10259216 </i>
    <i name="e_0_energy">   -128.14256738 </i>
   </energy>
  </scstep>
  <scstep>
   <time name="dav">   29.00   29.07</time>
   <time name="total">   30.60   30.68</time>
   <dipole>
    <v name="dipole">      0.00000000       0.00000000      -0.23627998 </v>
    <i name="Tr[quadrupol]">  -3856.46953131 </i>
    <i name="Echarged">      0.00000000 </i>
    <i name="Edipol_quadrupol">      0.00000000 </i>
    <i name="Eion">      0.00000000 </i>
   </dipole>
   <energy>
    <i name="e_fr_energy">   -128.18255624 </i>
    <i name="e_wo_entrp">   -128.10173173 </i>
    <i name="e_0_energy">   -128.14214398 </i>
   </energy>
  </scstep>
  <scstep>
   <time name="dav">   28.72   28.79</time>
   <time name="total">   30.34   30.41</time>
   <dipole>
    <v name="dipole">      0.00000000       0.00000000      -0.22898844 </v>
    <i name="Tr[quadrupol]">  -3856.70815987 </i>
    <i name="Echarged">      0.00000000 </i>
    <i name="Edipol_quadrupol">      0.00000000 </i>
    <i name="Eion">      0.00000000 </i>
   </dipole>
   <energy>
    <i name="e_fr_energy">   -128.17628784 </i>
    <i name="e_wo_entrp">   -128.09651140 </i>
    <i name="e_0_energy">   -128.13639962 </i>
   </energy>
  </scstep>
  <scstep>
   <time name="dav">   28.84   28.91</time>
   <time name="total">   30.48   30.55</time>
   <dipole>
    <v name="dipole">      0.00000000       0.00000000      -0.22478265 </v>
    <i name="Tr[quadrupol]">  -3856.92093497 </i>
    <i name="Echarged">      0.00000000 </i>
    <i name="Edipol_quadrupol">      0.00000000 </i>
    <i name="Eion">      0.00000000 </i>
   </dipole>
   <energy>
    <i name="e_fr_energy">   -128.17207982 </i>
    <i name="e_wo_entrp">   -128.09360735 </i>
    <i name="e_0_energy">   -128.13284359 </i>
   </energy>
  </scstep>
  <scstep>
   <time name="dav">   28.10   28.17</time>
   <time name="total">   29.71   29.78</time>
   <dipole>
    <v name="dipole">      0.00000000       0.00000000      -0.21753003 </v>
    <i name="Tr[quadrupol]">  -3857.20118447 </i>
    <i name="Echarged">      0.00000000 </i>
    <i name="Edipol_quadrupol">      0.00000000 </i>
    <i name="Eion">      0.00000000 </i>
   </dipole>
   <energy>
    <i name="e_fr_energy">   -128.16840782 </i>
    <i name="e_wo_entrp">   -128.08974605 </i>
    <i name="e_0_energy">   -128.12907693 </i>
   </energy>
  </scstep>
  <scstep>
   <time name="dav">   28.44   28.51</time>
   <time name="total">   30.07   30.15</time>
   <dipole>
    <v name="dipole">      0.00000000       0.00000000      -0.21065663 </v>
    <i name="Tr[quadrupol]">  -3857.38249723 </i>
    <i name="Echarged">      0.00000000 </i>
    <i name="Edipol_quadrupol">      0.00000000 </i>
    <i name="Eion">      0.00000000 </i>
   </dipole>
   <energy>
    <i name="e_fr_energy">   -128.16603544 </i>
    <i name="e_wo_entrp">   -128.08706137 </i>
    <i name="e_0_energy">   -128.12654841 </i>
   </energy>
  </scstep>
  <scstep>
   <time name="dav">   27.96   28.03</time>
   <time name="total">   29.58   29.65</time>
   <dipole>
    <v name="dipole">      0.00000000       0.00000000      -0.20770149 </v>
    <i name="Tr[quadrupol]">  -3857.53388927 </i>
    <i name="Echarged">      0.00000000 </i>
    <i name="Edipol_quadrupol">      0.00000000 </i>
    <i name="Eion">      0.00000000 </i>
   </dipole>
   <energy>
    <i name="e_fr_energy">   -128.16526272 </i>
    <i name="e_wo_entrp">   -128.08590254 </i>
    <i name="e_0_energy">   -128.12558263 </i>
   </energy>
  </scstep>
  <scstep>
   <time name="dav">   28.16   28.22</time>
   <time name="total">   29.79   29.87</time>
   <dipole>
    <v name="dipole">      0.00000000       0.00000000      -0.20803924 </v>
    <i name="Tr[quadrupol]">  -3857.64008330 </i>
    <i name="Echarged">      0.00000000 </i>
    <i name="Edipol_quadrupol">      0.00000000 </i>
    <i name="Eion">      0.00000000 </i>
   </dipole>
   <energy>
    <i name="e_fr_energy">   -128.16543043 </i>
    <i name="e_wo_entrp">   -128.08589349 </i>
    <i name="e_0_energy">   -128.12566196 </i>
   </energy>
  </scstep>
  <scstep>
   <time name="dav">   27.68   27.75</time>
   <time name="total">   29.29   29.36</time>
   <dipole>
    <v name="dipole">      0.00000000       0.00000000      -0.20103396 </v>
    <i name="Tr[quadrupol]">  -3857.75015438 </i>
    <i name="Echarged">      0.00000000 </i>
    <i name="Edipol_quadrupol">      0.00000000 </i>
    <i name="Eion">      0.00000000 </i>
   </dipole>
   <energy>
    <i name="e_fr_energy">   -128.16681108 </i>
    <i name="e_wo_entrp">   -128.08771587 </i>
    <i name="e_0_energy">   -128.12726347 </i>
   </energy>
  </scstep>
  <scstep>
   <time name="dav">   30.56   30.64</time>
   <time name="total">   32.23   32.30</time>
   <dipole>
    <v name="dipole">      0.00000000       0.00000000      -0.18854198 </v>
    <i name="Tr[quadrupol]">  -3858.10459046 </i>
    <i name="Echarged">      0.00000000 </i>
    <i name="Edipol_quadrupol">      0.00000000 </i>
    <i name="Eion">      0.00000000 </i>
   </dipole>
   <energy>
    <i name="e_fr_energy">   -128.16858313 </i>
    <i name="e_wo_entrp">   -128.08958511 </i>
    <i name="e_0_energy">   -128.12908412 </i>
   </energy>
  </scstep>
  <scstep>
   <time name="dav">   27.85   27.92</time>
   <time name="total">   29.51   29.58</time>
   <dipole>
    <v name="dipole">      0.00000000       0.00000000      -0.19804496 </v>
    <i name="Tr[quadrupol]">  -3858.04946195 </i>
    <i name="Echarged">      0.00000000 </i>
    <i name="Edipol_quadrupol">      0.00000000 </i>
    <i name="Eion">      0.00000000 </i>
   </dipole>
   <energy>
    <i name="e_fr_energy">   -128.16930081 </i>
    <i name="e_wo_entrp">   -128.08996568 </i>
    <i name="e_0_energy">   -128.12963324 </i>
   </energy>
  </scstep>
  <scstep>
   <time name="dav">   28.06   28.12</time>
   <time name="total">   29.71   29.78</time>
   <dipole>
    <v name="dipole">      0.00000000       0.00000000      -0.19831245 </v>
    <i name="Tr[quadrupol]">  -3858.09273035 </i>
    <i name="Echarged">      0.00000000 </i>
    <i name="Edipol_quadrupol">      0.00000000 </i>
    <i name="Eion">      0.00000000 </i>
   </dipole>
   <energy>
    <i name="e_fr_energy">   -128.16967645 </i>
    <i name="e_wo_entrp">   -128.09027232 </i>
    <i name="e_0_energy">   -128.12997438 </i>
   </energy>
  </scstep>
  <scstep>
   <time name="dav">   27.61   27.68</time>
   <time name="total">   29.24   29.31</time>
   <dipole>
    <v name="dipole">      0.00000000       0.00000000      -0.19823688 </v>
    <i name="Tr[quadrupol]">  -3858.21984609 </i>
    <i name="Echarged">      0.00000000 </i>
    <i name="Edipol_quadrupol">      0.00000000 </i>
    <i name="Eion">      0.00000000 </i>
   </dipole>
   <energy>
    <i name="e_fr_energy">   -128.16977262 </i>
    <i name="e_wo_entrp">   -128.09034202 </i>
    <i name="e_0_energy">   -128.13005732 </i>
   </energy>
  </scstep>
  <scstep>
   <time name="dav">   27.36   27.42</time>
   <time name="total">   29.02   29.09</time>
   <dipole>
    <v name="dipole">      0.00000000       0.00000000      -0.19949684 </v>
    <i name="Tr[quadrupol]">  -3858.25425918 </i>
    <i name="Echarged">      0.00000000 </i>
    <i name="Edipol_quadrupol">      0.00000000 </i>
    <i name="Eion">      0.00000000 </i>
   </dipole>
   <energy>
    <i name="e_fr_energy">   -128.16980035 </i>
    <i name="e_wo_entrp">   -128.09039969 </i>
    <i name="e_0_energy">   -128.13010002 </i>
   </energy>
  </scstep>
  <scstep>
   <time name="dav">   18.10   18.14</time>
   <time name="total">   18.38   18.42</time>
   <dipole>
    <v name="dipole">      0.00000000       0.00000000      -0.19661280 </v>
    <i name="Tr[quadrupol]">  -3858.00419569 </i>
    <i name="Echarged">      0.00000000 </i>
    <i name="Edipol_quadrupol">      0.00000000 </i>
    <i name="Eion">      0.00000000 </i>
   </dipole>
   <energy>
    <i name="alphaZ">   1393.99250314 </i>
    <i name="ewald"> 208777.35389377 </i>
    <i name="hartreedc">-256022.40161177 </i>
    <i name="XCdc">   1517.52811023 </i>
    <i   <time name="dav">   16.83   16.87</time>
   <time name="total">   17.04   17.08</time>
   <dipole>
    <v name="dipole">      0.00000000       0.00000000      -0.19682403 </v>
    <i name="Tr[quadrupol]">  -3823.58067087 </i>
    <i name="Echarged">      0.00000000 </i>
    <i name="Edipol_quadrupol">      0.00000000 </i>
    <i name="Eion">      0.00000000 </i>
   </dipole  <structure>
   <crystal>
    <varray name="basis" >
     <v>       7.71239996       0.00000000       0.00000000 </v>
     <v>      -3.85619998       6.67913429       0.00000000 </v>
     <v>       0.00000000       0.00000000      24.29719925 </v>
    </varray>
    <i name="volume">   1251.60109432 </i>
    <varray name="rec_basis" >
     <v>       0.12966133       0.07486000       0.00000000 </v>
     <v>       0.00000000       0.14972000       0.00000000 </v>
     <v>       0.00000000       0.00000000       0.04115701 </v>
    </varray>
   </crystal>
   <varray   <structure>
   <crystal>
    <varray name="basis" >
     <v>       7.71239996       0.00000000       0.00000000 </v>
     <v>      -3.85619998       6.67913429       0.00000000 </v>
     <v>       0.00000000       0.00000000      24.29719925 </v>
    </varray>
    <i name="volume">   1251.60109432 </i>
    <varray name="rec_basis" >
     <v>       0.12966133       0.07486000       0.00000000 </v>
     <v>       0.00000000       0.14972000       0.00000000 </v>
     <v>       0.00000000       0.00000000       0.04115701 </v>
    </varray>
   </crystal>
   <varray name="positions" >
    <v>       0.33333055       0.66666952       0.99998117 </v>
    <v>       0.33333155       0.99999968       0.99998127 </v>
    <v>       0.00000034       0.66666851       0.99998127 </v>
    <v>       0.00000106       0.99999894       0.99998137 </v>
    <v>       0.33333374       0.33333358       0.99998160 </v>
    <v>       0.66666645       0.66666631       0.99998160 </v>
    <v>       0.66666550       0.99999855       0.99998166 </v>
    <v>       0.00000144       0.33333452       0.99998166 </v>
    <v>       0.66666864       0.33333139       0.99998187 </v>
    <v>       0.44444232       0.22222301       0.08654002 </v>
    <v>       0.77777700       0.55555767       0.08654002 </v>
    <v>       0.11110840       0.55555772       0.08654003 </v>
    <v>       0.44444228       0.88889164       0.08654003 </v>
    <v>       0.44444159       0.55555839       0.08654015 </v>
    <v>       0.77777882       0.22222117       0.08654017 </v>
    <v>       0.11110945       0.88889061       0.08654046 </v>
    <v>       0.11110991       0.22222219       0.08654066 </v>
    <v>       0.77777783       0.88889014       0.08654066 </v>
    <v>       0.25124324       0.08208885       0.17355010 </v>
    <v>       0.91849611       0.74949345       0.17420387 </v>
    <v>       0.91857388       0.08212335       0.17412481 </v>
    <v>       0.25076965       0.74879963       0.17414984 </v>
    <v>       0.58384280       0.41483564       0.17420438 </v>
    <v>       0.58453695       0.08255993       0.17414998 </v>
    <v>       0.91796484       0.41536908       0.17458264 </v>
    <v>       0.25120910       0.41475904       0.17412526 </v>
    <v>       0.58433988       0.74899484       0.17417919 </v>
    <v>       0.36533856       0.63426182       0.25959850 </v>
    <v>       0.36704526       0.96629071       0.25922444 </v>
    <v>       0.03205305       0.63499633       0.26026352 </v>
    <v>       0.36734808       0.30379909       0.25972332 </v>
    <v>       0.69854763       0.63478514       0.25936106 </v>
    <v>       0.02953358       0.96598657       0.25972355 </v>
    <v>       0.69907531       0.96799318       0.25959910 </v>
    <v>       0.03102072       0.30231049       0.26000334 </v>
    <v>       0.69833870       0.30127604       0.26026401 </v>
    <v>       0.22184297       0.11148683       0.34616349 </v>
   </varray>
  </structure>
  <varray name="forces" >
   <v>      -0.00787785       0.00297846       0.09606369 </v>
   <v>       0.00530629      -0.00306359       0.10543032 </v>
   <v>      -0.00578961      -0.00006773       0.10243236 </v>
   <v>      -0.01386378       0.00003801       0.10141153 </v>
   <v>      -0.00696481       0.01198738       0.10141153 </v>
   <v>      -0.00117214       0.00067674       0.08796810 </v>
   <v>      -0.00651834       0.00533319       0.09606369 </v>
   <v>      -0.00203557       0.00117524       0.10754174 </v>
   <v>      -0.00283615       0.00504782       0.10243236 </v>
   <v>       0.11187456      -0.04105571      -0.14600920 </v>
   <v>       0.09154660      -0.05285446      -0.05152503 </v>
   <v>       0.09369079      -0.05826340      -0.04892944 </v>
   <v>       0.09564069      -0.05521818      -0.07466807 </v>
   <v>       0.09383949      -0.04831624      -0.08221038 </v>
   <v>       0.09730298      -0.05200690      -0.04892944 </v>
   <v>       0.09149257      -0.07635836      -0.14600920 </v>
   <v>       0.09006885      -0.05200127      -0.12732229 </v>
   <v>       0.08876283      -0.05710927      -0.08221038 </v>
   <v>      -0.07077552       0.04086227      -0.01672230 </v>
   <v>      -0.07378613       0.04219407      -0.00052886 </v>
   <v>      -0.07080765       0.04240126       0.00032005 </v>
   <v>      -0.07412030       0.04838970       0.01002935 </v>
   <v>      -0.07343420       0.04280363    <energy>
   <i name="e_fr_energy">   -127.94648161 </i>
   <i name="e_wo_entrp">   -127.90698412 </i>
   <i name="e_0_energy">     -0.07899498 </i>
  </energy>
  <time name="totalsc">  770.58  772.46</time>
 </calculation>
06107192       0.03525989      -0.00373394 </v>
   <v>      -0.02019150       0.02876616      -0.02701228 </v>
   <v>      -0.18619204       0.10749802       0.26405738 </v>
   <v>      -0.01806961      -0.01045359      -0.03343076 </v>
   <v>       0.04266438       0.22175132      -0.32970837 </v>
   <v>      -0.01586190       0.00915787        <energy>
   <i name="e_fr_energy">   -128.05489573 </i>
   <i name="e_wo_entrp">   -128.01498687 </i>
   <i name="e_0_energy">     -0.07981773 </i>
  </energy>
  <time name="totalsc">  770.86  772.73</time>
 </calculation>
1827       0.02087553      -0.03343076 </v>
   <v>       0.14428374      -0.08330226       0.31693649 </v>
  </varray>
  <varray name="stress" >
   <v>     -15.71175976       4.11582311      -2.14679652 </v>
   <v>       4.11582311     -10.95921660       1.23945355 </v>
   <v>      -2.14679584       1.23945315      -1.21048038 </v>
  </varray>
  <energy>
   <i name="e_fr_energy">   -127.87597744 </i>
   <i name="e_wo_entrp">   -127.83716273 </i>
   <i name="e_0_energy">     -0.07762941 </i>
  </energy>
  <time name="totalsc">  770.79  772.66</time>
 </calculation>
 <calculation>
  <scstep>
   <time name="dav">   27.   <time name="dav   <time name="total">   2   <time name="total">   29.85   29.92</time>
   <di   <time name="total">   2   <time name="total">   29.79   29.86</time>
   <dipole>
    <v name="dipole">      0.00000000       0.00000000      -0.19665145 </v>
    <i name="Tr[quadrupol]">  -3821.72686080 </i>
    <i name="Echarged">      0.00000000 </i>
    <i name="Edipol_quadrupol">      0.00000000 </i>
    <i name="Eion">      0.00000000 </i>
   </dipole>
   <energy>
    <i name="alphaZ">   1388.16252328 </i>
    <i name="ewald"> 207212.48932073 </i>
    <i name="hartreedc">-254461.83501512 </i>
    <i name="XCdc">   1517.34311513 </i>
    <i name="pawpsdc">  40236.42494211 </i>
    <i name="pawaedc"> -45417.13335736 </i>
    <i name="eentropy">     -0.07708678 </i>
    <i name="bandstr">  -1792.07298577 </i>
    <i name="atom">  51188.86509581 </i>
    <i name="e_fr_energy">   -127.83344796 </i>
    <i name="e_wo_entrp">    <time name="dav">   33.34   33.42</time>
   <time name="total">   34.88   3   <time name="dav">   37.49   37.58</time>
   <time name="total">   39.12   39.21</time>
   <dipole>
    <v name="dipole">      0.00000000       0.00000000      -0.20185383 </v>
    <i name="Tr[quadrupol]">  -3830.30793969 </i>
    <i name="Echarged">      0.00000000 </i>
    <i name="Edipol_quadrupol">      0.00000000 </i>
    <i name="Eion">      0.00000000 </i>
   </dipole>
   <energy>
    <i name="e_fr_energy">   -127.94919436 </i>
    <i name="e_wo_entrp">   -127.87011031 </i>
    <   <time name="dav">   27.85   27.92</time>
   <time name="total">   29.36   2   <time name="dav">   29.24   29.31</time>
   <time name="total">   30.88   30.96</time>
   <dipole>
    <v name="dipole">      0.00000000       0.00000000      -0.19726600 </v>
    <i name="Tr[quadrupol]">  -3830.28834647 </i>
    <i name="Echarged">      0.00000000 </i>
    <i name="Edipol_quadrupol">      0.00000000 </i>
    <i name="Eion">      0.00000000 </i>
   </dipole>
   <energy>
    <i name="e_fr_energy">   -127.94902231 </i>
    <i name="e_wo_entrp">   -127.87009217 </i>
    <   <time name="dav">   27.66   27.73</time>
   <time name="total">   27.88   2   <time name="dav">   28.47   28.54</time>
   <time name="total">   28.71   28.78</time>
   <dipole>
    <v name="dipole">      0.00000000       0.00000000      -0.19751196 </v>
    <i name="Tr[quadrupol]">  -3830.29206319 </i>
    <i name="Echarged">      0.00000000 </i>
    <i name="Edipol_quadrupol">      0.00000000 </i>
    <i name="Eion">      0.00000000 </i>
   </dipole>
   <energy>
    <i name="alphaZ">   1386.97622037 </i>
    <i name="ewald"> 207996.25874179 </i>
    <i name="hartreedc">-255243.09643024 </i>
    <i name="XCdc">   1517.44644023 </i>
    <i name="pawpsdc">  40242.26717939 </i>
    <i name="pawaedc"> -45423.09331042 </i>
    <i name="eentropy">     -0.07894067 </i>
    <i name="bandstr">  -1793.49402613 </i>
    <i name="atom">  51188.86509581 </i>
    <i name="e_fr_energy">   -127.94902986 </i>
    <i name="e_wo_entrp">   -127.87008920  <structure>
   <crystal>
    <varray name="basis" >
     <v>       7.7123999  <structure>
   <crystal>
    <varray name="basis" >
     <v>       7.71239996       0.00000000       0.00000000 </v>
     <v>      -3.85619998       6.67913429       0.00000000 </v>
     <v>       0.00000000       0.00000000      24.29719925 </v>
    </varray>
    <i name="volume">   1251.60109432 </i>
    <varray name="rec_basis" >
     <v>       0.12966133       0.07486000       0.00000000 </v>
     <v>       0.00000000       0.14972000       0.00000000 </v>
     <v>       0.00000000       0.00000000       0.04115701 </v>
    </varray>
   </crystal>
   <varray name="positions" >
    <v>       0.33333055       0.66666952       0.99998117 </v>
    <v>       0.33333155       0.99999968       0.99998127 </v>
    <v>       0.00000034       0.66666851       0.99998127 </v>
    <v>       0.00000106       0.99999894       0.99998137 </v>
    <v>       0.33333374       0.33333358       0.99998160 </v>
    <v>       0.66666645       0.66666631       0.99998160 </v>
    <v>       0.66666550       0.99999855       0.99998166 </v>
    <v>       0.00000144       0.33333452       0.99998166 </v>
    <v>       0.66666864       0.33333139       0.99998187 </v>
    <v>       0.44444232       0.22222301       0.08654002 </v>
    <v>       0.77777700       0.55555767       0.08654002 </v>
    <v>       0.11110840       0.55555772       0.08654003 </v>
    <v>       0.44444228       0.88889164       0.08654003 </v>
    <v>       0.44444159       0.55555839       0.08654015 </v>
    <v>       0.77777882       0.22222117       0.08654017 </v>
    <v>       0.11110945       0.88889061       0.08654046 </v>
    <v>       0.11110991       0.22222219       0.08654066 </v>
    <v>       0.77777783       0.88889014       0.08654066 </v>
    <v>       0.24402357       0.08930852       0.17327178 </v>
    <v>       0.91120363       0.75682702       0.17383595 </v>
    <v>       0.91103828       0.08933628       0.17370468 </v>
    <v>       0.24369403       0.75609846       0.17393926 </v>
    <v>       0.57650923       0.42212812       0.17383646 </v>
    <v>       0.57723812       0.08963555       0.17393940 </v>
    <v>       0.91080872       0.42252520       0.17412035 </v>
    <v>       0.24399617       0.42229464       0.17370512 </v>
    <v>       0.57709611       0.75623860       0.17395940 </v>
    <v>       0.35731283       0.64230329       0.25947647 </v>
    <v>       0.35854825       0.97478772       0.25922847 </v>
    <v>       0.02395331       0.64285724       0.25972374 </v>
    <v>       0.35993461       0.31177807       0.25921295 </v>
    <v>       0.69062428       0.64270848       0.25905194 </v>
    <v>       0.02155460       0.97340004       0.25921318 </v>
    <v>       0.69103385       0.97601891       0.25947707 </v>
    <v>       0.02281711       0.31051410       0.25949713 </v>
    <v>       0.69047779       0.30937579       0.25972423 </v>
    <v>       0.19418956       0.13914082       0.34577326 </v>
   </varray>
  </structure>
  <varray name="forces" >
   <v>      -0.00804060       0.00219056       0.09615446 </v>
   <v>       0.00527272      -0.00304421       0.10842051 </v>
   <v>      -0.00149501       0.00174296       0.10175418 </v>
   <v>      -0.01177256      -0.00376870       0.10426691 </v>
   <v>      -0.00262249       0.01207969       0.10426691 </v>
   <v>      -0.00201054       0.00116078       0.09031028 </v>
   <v>      -0.00591738       0.00586808       0.09615446 </v>
   <v>      -0.00489239       0.00282462       0.11207541 </v>
   <v>      -0.00225696       0.00042324       0.10175418 </v>
   <v>       0.11198456      -0.04622691      -0.13301279 </v>
   <v>       0.09155341      -0.05285839      -0.03792007 </v>
   <v>       0.09259066      -0.04990524      -0.05020316 </v>
   <v>       0.09152073      -0.05283952      -0.04848562 </v>
   <v>       0.09863208      -0.04277923      -0.08148651 </v>
   <v>       0.08951454      -0.05523324      -0.05020316 </v>
   <v>       0.09602596      -0.07386802      -0.13301279 </v>
   <v>       0.09130989      -0.05271779      -0.12830980 </v>
   <v>       0.08636394      -0.06402827      -0.08148651 </v>
   <v>      -0.07514755       0.04338646      -0.02801692 </v>
   <v>      -0.07978066       0.04481581      -0.01738501 </v>
   <v>      -0.08067244       0.04844784      -0.01524644 </v>
   <v>      -0.08058996       0.05066404      -0.00273084 </v>
   <v>      -0.07870196       0.04668417      -0.01738501 </v>
   <v>      -0.08417132       0.04446094      -0.00273084 </v>
   <v>      -0.06532667       0.03771637      -0.01096644 </v>
   <v>      -0.08229328       0.04564046      -0.01524644 </v>
   <v>      -0.06384574       0.03686135      -0.01871100 </v>
   <v>      -0.01399246       0.02646361      -0.02795667 </v>
   <v>      -0.16645939       0.09610538       0.22426805 </v>
   <v>      -0.01191339      -0.01506005      -0.03266348 </v>
   <v>       0.10438894       0.23027914      -0.37293656 </v>
   <v>      -0.01137757       0.00656884       0.00530429 </v>
   <v>      -0.14723311      -0.20554305      -0.37293656 </v>
   <v>      -0.02991439      -0.00111398      -0.02795667 </v>
   <v>       0.13040775      -0.07529095       0.18591945 </v>
   <v>       0.00708568       0.01784733      -0.03266348 </v>
   <v>       0.01377697      -0.00795414       0.40900367 </v>
  </varray>
  <varray name="stress" >
   <v>     -15.65425267       3.57775410      -2.42999189 </v>
   <v>       3.57775410     -11.52301808       1.40295647 </  <energy>
   <i name="e_fr_energy">   -127.87794714 </i>
   <i name="e_wo_entrp">   -127.83912398 </i>
   <i name=   <i name="e_fr_energy">   -127.83  </energy>
  <time name="totalsc">  1  <time name="totalsc">  1  <time name="totalsc">  1  <time name="totalsc">  148.58  148.94</time>
 </ca   <time name="dav">   26.   <time name="dav   <time name="total">   2   <time name="total">   28.47   28.5   <time name="total">   28.56   28.62</time>
   <dipole>
    <v name="dipole">      0.00000000       0.00000000      -0.19810561 </v>
    <i name="Tr[quadrupol]">  -3842.69190700 </i>
    <i name="Echarged">      0.00000000 </i>
    <i name="Edipol_quadrupol">      0.00000000 </i>
    <i name="Eion">      0.00000000 </i>
   </dipole>
   <energy>
    <i name="alphaZ">   1386.86732763 </i>
    <i name="ewald"> 208381.98130115 </i>
    <i name="hartreedc">-255628.27726620 </i>
    <i name="XCdc">   1517.46200428 </i>
    <i name="pawpsdc">  40243.76651168 </i>
    <i name="pawaedc"> -45424.63826265 </i>
    <i name="eentropy">     -0.07981802 </i>
    <i name="bandstr">  -1794.02068227 </i>
    <i name="atom">  51188.86509581 </i>
    <i name="e_fr_energy">   -128.07378859 </i>
    <i name="e_wo_entrp">   -127.99397057 </i>
    <i name="e_0_ene   <time name="dav">   27.88   27.94</time>
   <time name="total">   29.45   29.53</time>
   <dipole>
    <   <time name="total">   2   <time name="total">   30.33   30.41</time>
   <dipole>
    <v name="dipole">      0.00000000       0.00000000      -0.19637607 </v>
    <i name="Tr[quadrupol]">  -3831.54728028 </i>
    <i name="Echarged">      0.00000000 </i>
    <i name="Edipol_quadrupol">      0.00000000 </i>
    <i name="Eion">      0.00000000 </i>
   </dipole>
   <energy>
    <i name="e_fr_energy">   -127.97441701 </i>
    <i name="e_wo_entrp">   -127.89575813   <time name="dav">   28.   <time name="dav   <time name="total">   2   <time name="total">   29.92   29.9   <time name="total">   29.96   30.03</time>
   <dipole>
    <v name="dipole">      0.00000000       0.00000000      -0.19819824 </v>
    <i name="Tr[quadrupol]">  -3842.72903677 </i>
    <i name="Echarged">      0.00000000 </i>
    <i name="Edipol_quadrupol">      0.00000000 </i>
    <i name="Eion">      0.00000000 </i>
   </dipole>
   <energy>
    <i name="e_fr_energy">   -128.07620022 </i>
    <i name="e_wo_entrp">   -127.99640103 </i>
    <i name="e_0_ene   <time name="dav">   27.   <time name="dav   <time name="tota   <tim   <time name="total">   29.67   29.7   <time name="total">   2   <time name="total">   29.99   30.07</time>
   <dipole>
    <v name="dipole">      0.00000000       0.00000000      -0.19808642 </v>
    <i name="Tr[quadrupol]">  -3831.59917084 </i>
    <i name="Echarged">      0.00000000 </i>
    <i name="Edipol_quadrupol">      0.00000000 </i>
    <i name="Eion">      0.00000000 </i>
   </dipole>
   <energy>
    <i name="e_fr_energy">   -127.97415181 </i>
    <i name="e_wo_entrp">   -127.89532969   <time name="dav">   28.   <time name="dav">   29.03   29.10<   <time name="dav">   31.12   31.19</time>
   <time name="total">   32.70   32.78</time>
   <dipole>
    <v name="dipole">      0.00000000       0.00000000      -0.19864357 </v>
    <i name="Tr[quadrupol]">  -3842.74730430 </i>
    <i name="Echarged">      0.00000000 </i>
    <i name="Edipol_quadrupol">      0.00000000 </i>
    <i name="Eion">      0.00000000 </i>
   </dipole>
   <energy>
    <i name="e_fr_energy">   -128.07601737 </i>
    <i name="e_wo_entrp">   -127.99627848 </i>
    <i name="e_0_ene   <time name="dav">   27.33   27.39</time>
   <time name="tota   <time name="dav">   29.   <time name="dav">   37.95   38.05</time>
   <time name="total">   39.52   39.62</time>
   <dipole>
    <v name="dipole">      0.00000000       0.00000000      -0.19800485 </v>
    <i name="Tr[quadrupol]">  -3831.64391501 </i>
    <i name="Echarged">      0.00000000 </i>
    <i name="Edipol_quadrupol">      0.00000000 </i>
    <i name="Eion">      0.00000000 </i>
   </dipole>
   <energy>
    <i name="e_fr_energy">   -127.97409837 </i>
    <i name="e_wo_entrp">   -127.89530490 </i>
    <i name="e_0_ene   <time name="dav">   26.61   26.68<   <time name="dav">   22.   <time name="dav">   33.58   33.66</time>
   <time name="total">   34.97   35.06</time>
   <dipole>
    <v name="dipole">      0.00000000       0.00000000      -0.20051630 </v>
    <i name="Tr[quadrupol]">  -3831.67536589 </i>
    <i name="Echarged">      0.00000000 </i>
    <i name="Edipol_quadrupol">      0.00000000 </i>
    <i name="Eion">      0.00000000 </i>
   </dipole>
   <energy>
    <i name="e_fr_energy">   -127.97408601 </i>
    <i name="e_wo_entrp">   -127.89522577 </i>
    <i name="e_0_energy">   -127.93465589 </i>
   </energy>
  </scstep>
  <scstep>
   <time name="dav">   19.23   19.27</time>
   <time name="total">   19.41   19.46</time>
   <dipole>
    <v name="dipole">      0.00000000       0.00000000      -0.20047880 </v>
    <i name="Tr[quadrupol]">  -3831.67697131 </i>
    <i name="Echarged">      0.00000000 </i>
    <i name="Edipol_quadrupol">      0.00000000 </i>
    <i name="Eion">      0.00000000 </i>
   </dipole>
   <energy>
    <i name="alphaZ">   1389.75783574 </i>
    <i name="ewald"> 207986.19612674 </i>
    <i name="hartreedc">-255233.78307563 </i>
    <i name="XCdc">   1517.41807566 </i>
    <i name="pawpsdc">  40240.57271266 </i>
    <i name="pawaedc"> -45421.30823465 </i>
    <i name="eentropy">     -0.07886166 </i>
    <i name="bandstr">  -1795.61376531 </i>
    <i name="atom">  51188.86509581 </i>
    <i name="e_fr_energy">   -127.97409065 </i>
    <i name="e_wo_entrp">   -127.89522899 </i>
    <i name="e_0_energy">   -127.93465982 </i>
   </energy>
  </scstep>
  <structure>
   <crystal>
    <varray name="basis" >
     <v>       7.71239996       0.00000000       0.00000000 </v>
     <v>      -3.85619998       6.67913429       0.00000000 </v>
     <v>       0.00000000       0.00000000      24.29719925 </v>
    </varray>
    <i name="volume">   1251.60109432 </i>
    <varray name="rec_basis" >
     <v>       0.12966133       0.07486000       0.00000000 </v>
     <v>       0.00000000       0.14972000       0.00000000 </v>
     <v>       0.00000000       0.00000000       0.04115701 </v>
    </varray>
   </crystal>
   <varray name="positions" >
    <v>       0.33333055       0.66666952       0.99998117 </v>
    <v>       0.33333155       0.99999968       0.99998127 </v>
    <v>       0.00000034       0.66666851       0.99998127 </v>
    <v>       0.00000106       0.99999894       0.99998137 </v>
    <v>       0.33333374       0.33333358       0.99998160 </v>
    <v>       0.66666645       0.66666631       0.99998160 </v>
    <v>       0.66666550       0.99999855       0.99998166 </v>
    <v>       0.00000144       0.33333452       0.99998166 </v>
    <v>       0.66666864       0.33333139       0.99998187 </v>
    <v>       0.44444232       0.22222301       0.08654002 </v>
    <v>       0.77777700       0.55555767       0.08654002 </v>
    <v>       0.11110840       0.55555772       0.08654003 </v>
    <v>       0.44444228       0.88889164       0.08654003 </v>
    <v>       0.44444159       0.55555839       0.08654015 </v>
    <v>       0.77777882       0.22222117       0.08654017 </v>
    <v>       0.11110945       0.88889061       0.08654046 </v>
    <v>       0.11110991       0.22222219       0.08654066 </v>
    <v>       0.77777783       0.88889014       0.08654066 </v>
    <v>       0.24383450       0.08949759       0.17322593 </v>
    <v>       0.91099436       0.75702384       0.17380991 </v>
    <v>       0.91083868       0.08955780       0.17368304 </v>
    <v>       0.24349633       0.75633313       0.17393705 </v>
    <v>       0.57631241       0.42233739       0.17381042 </v>
    <v>       0.57700345       0.08983325       0.17393720 </v>
    <v>       0.91065514       0.42267878       0.17410674 </v>
    <v>       0.24377465       0.42249424       0.17368348 </v>
    <v>       0.57694909       0.75638563       0.17392921 </v>
    <v>       0.35741836       0.64237402       0.25942879 </v>
    <v>       0.35803743       0.97529854       0.25962296 </v>
    <v>       0.02393842       0.64266451       0.25967290 </v>
    <v>       0.36134042       0.31315368       0.25856329 </v>
    <v>       0.69067940       0.64265336       0.25906505 </v>
    <v>       0.02017899       0.97199423       0.25856352 </v>
    <v>       0.69096311       0.97591339       0.25942939 </v>
    <v>       0.02339933       0.30993188       0.25983025 </v>
    <v>       0.69067052       0.30939068       0.25967339 </v>
    <v>       0.19458000       0.13875037       0.34649733 </v>
   </varray>
  </structure>
  <varray name="forces" >
   <v>      -0.00806020       0.00279269       0.09609478 </v>
   <v>       0.00524768      -0.00302975       0.10849299 </v>
   <v>      -0.00190859       0.00134006       0.10142075 </v>
   <v>      -0.01148240      -0.00326168       0.10459870 </v>
   <v>      -0.00291650       0.01157489       0.10459870 </v>
   <v>      -0.00223880       0.00129257       0.09064380 </v>
   <v>      -0.00644864       0.00558400       0.09609478 </v>
   <v>      -0.00513487       0.00296462       0.11207795 </v>
   <v>      -0.00211482       0.00098285       0.10142075 </v>
   <v>       0.11219739      -0.04583827      -0.13564101 </v>
   <v>       0.09060924      -0.05231327      -0.04013166 </v>
   <v>       0.09297930      -0.04987255      -0.04926701 </v>
   <v>       0.09064480      -0.05233380      -0.04760621 </v>
   <v>       0.09852184      -0.04290752      -0.08351322 </v>
   <v>       0.08968054      -0.05558616      -0.04926701 </v>
   <v>       0.09579580      -0.07424666      -0.13564101 </v>
   <v>       0.09029880      -0.05213404      -0.13051179 </v>
   <v>       0.08641992      -0.06386866      -0.08351322 </v>
   <v>      -0.06742252       0.03892641      -0.03524034 </v>
   <v>      -0.07650348       0.02269962      -0.04754451 </v>
   <v>      -0.08937724       0.05898549      -0.02176185 </v>
   <v>      -0.0  <energy>
   <i name="e_fr_energy">   -127.89857597 </i>
   <i name="e_wo_entrp">   -127.85985035 </i>
   <i name="e_0_energy">     -0.07745125 </i>
  </energy>
  <time name="totalsc">  260.53  261.17</time>
 </calculation>
40477 </v>
   <v>      -0.09577156       0.04791022      -0.02176185 </v>
   <v>      -0.06653722       0.03841528      -0.01704842 </v>
   <v>      -0.02887407       0.04066247      -0.02518761 </v>
   <v>      -0.14798828       0.08544107       0.18189713 </v>
   <v>      -0.00202854      -0.02429888      -0.02692896 </v>
   <v>       0.03099046       0.09968377        <energy>
   <i name="e_fr_energy">   -128.17803178 </i>
   <i name="e_wo_entrp">   -128.13833465 </i>
   <i name="e_0_energy">     -0.07939426 </i>
  </energy>
  <time name="totalsc">  260.54  261.18</time>
 </calculation>
60.52  261.15</time>
 </calculation>
5 </v>
   <v>       0.02002918       0.01390621      -0.02692896 </v>
   <v>       0.01215644      -0.00701852       0.11883731 </v>
  </varray>
  <varray name="stress" >
   <v>     -15.84098097       3.48940191      -2.47663039 </v>
   <v>       3.48940191     -11.81176671       1.42988322 </v>
   <v>      -2.47663016       1.42988309      -2.  <energy>
   <i name="e_f  <energy>
   <i name="e_fr_energy">   -127.97409065 </i>
   <i name="e_wo_entrp">   -127.93465982 </i>
   <i name="e_0_energy">     -0.  <time name="totalsc">  260.55  261.18</time>
 </ca   <time name="   <time name="dav">   26.73    <time name="   <time name="total">   28.40   28.47</time>
     <time name="total">   2   <time name="total">   28.49   28.55</time>
   <dipole>
    <v name="dipole">      0.00000000       0.00000000      -0.20070497 </v>
    <i name="Tr[quadrupol]">  -3844.07379619 </i>
    <i name="Echarged">      0.00000000 </i>
    <i name="Edipol_quadrupol">      0.00000000 </i>
    <i name="Eion">      0.00000000 </i>
   </dipole>
   <energy>
    <i name="alphaZ">   1389.68391805 </i>
    <i name="ewald"> 208389.00430843 </i>
    <i name="hartreedc">-255635.92538604 </i>
    <i name="XCdc">   1517.44431670 </i>
    <i name="pawpsdc">  40242.51711894 </i>
    <i name="pawaedc"> -45423.30199629 </i>
    <i name="eentropy">     -0.08007089 </i>
    <i name="bandstr">  -1796.29669552 </i>
    <i name="atom">  51188.86509581 </i>
    <i name="e_fr_energy">   -128.08939081 </i>
    <i name="e_wo_entrp">   -128.00931992   <time name="   <time name="dav">   28.70    <time name="   <time name="total">   30.20   30.27</time>
     <time name="total">   30.48   30.55</time>
   <dipole>
    <v name="dipole">      0.00000000       0.00000000      -0.19947691 </v>
    <i name="Tr[quadrupol]">  -3833.41258759 </i>
    <i name="Echarged">      0.00000000 </i>
    <i name="Edipol_quadrupol">      0.00000000 </i>
    <i name="Eion">      0.00000000 </i>
   </dipole>
   <energy>
    <i name="e_fr_energy">   -127.99663158 </i>
    <i name="e_wo_entrp">   -127.91780296 </i>
    <i name="e_0_ene   <time name="   <time name="dav">   28.56   28.62</time>
   <time name="total">   30.11   30.19</time>
     <time name="total">   29.86   29.93</time>
   <dipole>
    <v name="dipole">      0.00000000       0.00000000      -0.19794419 </v>
    <i name="Tr[quadrupol]">  -3833.42129799 </i>
    <i name="Echarged">      0.00000000 </i>
    <i name="Edipol_quadrupol">      0.00000000 </i>
    <i name="Eion">      0.00000000 </i>
   </dipole>
   <energy>
    <i name="e_fr_energy">   -127.99618130 </i>
    <i name="e_wo_entrp">   -127.91707576 </i>
    <i name="e_0_ene   <time name="   <time name="dav">   28.41   28.47</time>
   <   <time name="dav">   34.87   34.96</time>
   <time name="total">   36.45   36.54</time>
   <dipole>
    <v name="dipole">      0.00000000       0.00000000      -0.20257812 </v>
    <i name="Tr[quadrupol]">  -3859.27968326 </i>
    <i name="Echarged">      0.00000000 </i>
    <i name="Edipol_quadrupol">      0.00000000 </i>
    <i name="Eion">      0.00000000 </i>
   </dipole>
   <energy>
    <i name="e_fr_energy">   -128.18582360 </i>
    <i name="e_wo_entrp">   -128.10610449 </i>
    <i name="e_0_ene   <time name="dav">   33.62   33.70</time>
   <time name="tota   <time name="dav">   33.85   33.93</time>
   <time name="total">   35.44   35.53</time>
   <dipole>
    <v name="dipole">      0.00000000       0.00000000      -0.19802298 </v>
    <i name="Tr[quadrupol]">  -3859.35790457 </i>
    <i name="Echarged">      0.00000000 </i>
    <i name="Edipol_quadrupol">      0.00000000 </i>
    <i name="Eion">      0.00000000 </i>
   </dipole>
   <energy>
    <i name="e_fr_energy">   -128.18587648 </i>
    <i name="e_wo_entrp">   -128.10637194 </i>
    <i name="e_0_ene   <time name="dav">   38.84   38.93</time>
   <time name="total">   40.38   40.48</time>
   <dipole>
    <v name="dipole">      0.00000000       0.00000000      -0.20216425 </v>
    <i name="Tr[quadrupol]">  -3823.61038497 </i>
    <i name="Echarged">      0.00000000 </i>
    <i name="Edipol_quadrupol">      0.00000000 </i>
    <i name="Eion">      0.00000000 </i>
   </dipole>
   <energy>
    <i name="e_fr_energy">   -127.85144387 </i>
    <i name="e_wo_entrp">   -127.77463081 </i>
    <i name="e_0_energy">   -127.81303734 </i>
   </energy>
  </scstep>
  <scstep>
   <time name="dav">   29.38   29.45</time>
   <time name="total">   30.96   31.04</time>
   <dipole>
    <v name="dipole">      0.00000000       0.00000000      -0.20149379 </v>
    <i name="Tr[quadrupol]">  -3823.61464967 </i>
    <i name="Echarged">      0.00000000 </i>
    <i name="Edipol_quadrupol">      0.00000000 </i>
    <i name="Eion">      0.00000000 </i>
   </dipole>
   <energy>
    <i name="e_fr_energy">   -127.85145637 </i>
    <i name="e_wo_entrp">   -127.77466324 </i>
    <i name="e_0_energy">   -127.81305980 </i>
   </energy>
  </scstep>
  <scstep>
   <time name="dav">   23.26   23.31</time>
   <time name="tota   <time name="dav">   27.03   27.09</time>
   <time name="total">   28.47   28.54</time>
   <dipole>
    <v name="dipole">      0.00000000       0.00000000      -0.20175495 </v>
    <i name="Tr[quadrupol]">  -3833.46687540 </i>
    <i name="Echarged">      0.00000000 </i>
    <i name="Edipol_quadrupol">      0.00000000 </i>
    <i name="Eion">      0.00000000 </i>
   </dipole>
   <energy>
    <i name="e_fr_energy">   -127.99537638 </i>
    <i name="e_wo_entrp">   -127.91626009 </i>
    <i name="e_0_energy">   -127.95581823 </i>
   </energy>
  </scstep>
  <scstep>
   <time name="dav">   17.29   17.33</time>
   <time name="total">   17.50   17.54</time>
   <dipole>
    <v name="dipole">      0.00000000       0.00000000      -0.20166531 </v>
    <i name="Tr[quadrupol]">  -3833.50388775 </i>
    <i name="Echarged">      0.00000000 </i>
    <i name="Edipol_quadrupol">      0.000  <structure>
   <crystal>
    <varray name="basis" >
     <v>       7.71239996       0.00000000       0.00000000 </v>
     <v>      -3.85619998       6.67913429       0.00000000 </v>
     <v>       0.00000000       0.00000000      24.29719925 </v>
    </varray>
    <i name="volume">   1251.60109432 </i>
    <varray name="rec_basis" >
     <v>       0.12966133       0.07486000       0.00000000 </v>
     <v>       0.00000000       0.14972000       0.00000000 </v>
     <v>       0.00000000       0.00000000       0.04115701 </v>
    </varray>
   </crystal>
   <varray name="positions" >
    <v>       0.33333055       0.66666952     <structure>
   <crystal>
    <varray name="basis" >
     <v>       7.71239996       0.00000000       0.00000000 </v>
     <v>      -3.85619998       6.67913429       0.00000000 </v>
     <v>       0.00000000       0.00000000      24.29719925 </v>
    </varray>
    <i name="volume">   1251.60109432 </i>
    <varray name="rec_basis" >
     <v>       0.12966133       0.07486000       0.00000000 </v>
     <v>       0.00000000       0.14972000       0.00000000 </v>
     <v>       0.00000000       0.00000000       0.04115701 </v>
    </varray>
   </crystal>
   <varray name="positions" >
    <v>       0.33333055       0.66666952       0.99998117 </v>
    <v>       0.33333155       0.99999968       0.99998127 </v>
    <v>       0.00000034       0.66666851       0.99998127 </v>
    <v>       0.00000106       0.99999894       0.99998137 </v>
    <v>       0.33333374       0.33333358       0.99998160 </v>
    <v>       0.66666645       0.66666631       0.99998160 </v>
    <v>       0.66666550       0.99999855       0.99998166 </v>
    <v>       0.00000144       0.33333452       0.99998166 </v>
    <v>       0.66666864       0.33333139       0.99998187 </v>
    <v>       0.44444232       0.22222301       0.08654002 </v>
    <v>       0.77777700       0.55555767       0.08654002 </v>
    <v>       0.11110840       0.55555772       0.08654003 </v>
    <v>       0.44444228       0.88889164       0.08654003 </v>
    <v>       0.44444159       0.55555839       0.08654015 </v>
    <v>       0.77777882       0.22222117       0.08654017 </v>
    <v>       0.11110945       0.88889061       0.08654046 </v>
    <v>       0.11110991       0.22222219       0.08654066 </v>
    <v>       0.77777783       0.88889014       0.08654066 </v>
    <v>       0.24336557       0.08996652       0.17305891 </v>
    <v>       0.91024545       0.75720650       0.17359048 </v>
    <v>       0.91022223       0.09038222       0.17358990 </v>
    <v>       0.24308905       0.75718728       0.17399781 </v>
    <v>       0.57612975       0.42308630       0.17359099 </v>
    <v>       0.57614930       0.09024053       0.17399795 </v>
    <v>       0.91031418       0.42301974       0.17411854 </v>
    <v>       0.24295023       0.42311068       0.17359035 </v>
    <v>       0.57649683       0.75683788       0.17385049 </v>
    <v>       0.35762375       0.64282671       0.25930385 </v>
    <v>       0.35674070       0.97659528       0.26056639 </v>
    <v>       0.02396472       0.64194363       0.25955300 </v>
    <v>       0.36315641       0.31485927       0.25764810 </v>
    <v>       0.69081806       0.64251470       0.25909453 </v>
    <v>       0.01847341       0.97017824       0.25764833 </v>
    <v>       0.69051043       0.97570799       0.25930445 </v>
    <v>       0.02489941       0.30843180       0.26062935 </v>
    <v>       0.69139140       0.30936438       0.25955350 </v>
    <v>       0.19571658       0.13761376       0.34719834 </v>
   </varray>
  </structure>
  <varray name="forces" >
   <v>      -0.00801197       0.00328107       0.09567031 </v>
   <v>       0.00553134      -0.00319352       0.10806526 </v>
   <v>      -0.00213044       0.00075613       0.10052268 </v>
   <v>      -0.01093895      -0.00293510       0.10414728 </v>
   <v>      -0.00292761       0.01094096       0.10414728 </v>
   <v>      -0.00236682       0.00136648       0.09008784 </v>
   <v>      -0.00684748       0.00529803       0.09567031 </v>
   <v>      -0.00509126       0.00293944       0.11171378 </v>
   <v>      -0.00172005       0.00146695       0.10052268 </v>
   <v>       0.11370361      -0.04726621      -0.14730127 </v>
   <v>       0.09248674      -0.05339725      -0.06032137 </v>
   <v>       0.09288756      -0.04708030      -0.04310588 </v>
   <v>       0.08831254      -0.05098727      -0.04321251 </v>
   <v>       0.09779844      -0.04291305      -0.08873080 </v>
   <v>       0.08721651      -0.05690284      -0.04310588 </v>
   <v>       0.09778555      -0.07483711      -0.14730127 </v>
   <v>       0.08884957      -0.05129732      -0.13689658 </v>
   <v>       0.08606301      -0.06323941      -0.08873080 </v>
   <v>      -0.05831982       0.03367097      -0.03053667 </v>
   <v>      -0.06518186       0.00525667      -0.05995498 </v>
   <v>      -0.09023592       0.06199392      -0.01649406 </v>
   <v>      -0.07285210       0.07122184       0.02546865 </v>
   <v>      -0.03714334       0.05382081    <energy>
   <i name="e_fr_energy">   -128.18581154 </i>
   <i name="e_wo_entrp">   -128.14600502 </i>
   <i name="e_0_energy">     -0.07961304 </i>
  </energy>
  <time name="totalsc">  285.20  285.89</time>
 </calculation>
06880040       0.03972193      -0.01568088 </v>
   <v>      -0.04916366       0.05554232      -0.01643910 </v>
   <v>      -0.11092149       0.06404055       0.10688681 </v>
   <v>       0.00513049      -0.02886531      -0.02066664 </v>
   <v>      -0.04381152      -0.02149812        <energy>
   <  <energy>
   <i name="e_fr_energy">   -127.92075544 </i>
   <i name="e_wo_entrp">   -127.88206448 </i>
   <i name="e_0_energy">     -0.07738191 </  <time name="t  <time name="totalsc">  285.23  285.93</time>
 </calculation>
 </energy>
  <time name="totalsc">  285.13  285.82</time>
 </calculation>
 -0.02066664 </v>
   <v>       0.01663201      -0.00960250      -0.16267032 </v>
  </varray>
  <varray name="stress" >
   <v>     -15.81481131       3.45066062      -2.57811970 </v>
   <v>       3.45066062     -11.83033163       1.48847810 </v>
   <v>      -2.57811896       1.48847767      -3.19864747 </v>
  </varray>
  <energy>
   <i name="e_fr_energy">   -127.99537082 </i>
   <i name="e_wo_entrp">   -127.95581579 </i>
   <i name="e_0_energy">     -0.07911006 </i>
  </energy>
  <time name="totalsc">  2   <time name="dav">   26.72   26.79</time>
   <time name="total">   28.42   28.49</time>
   <dipole>
    <   <time name="total">   2   <time name="total">   28.56   28.63</time>
   <dipole>
    <v name="dipole">      0.00000000       0.00000000      -0.20099317 </v>
    <i name="Tr[quadrupol]">  -3859.65487661 </i>
    <i name="Echarged">      0.00000000 </i>
    <i name="Edipol_quadrupol">      0.00000000 </i>
    <i name="Eion">      0.00000000 </i>
   </dipole>
   <energy>
    <i name="alphaZ">   1391.65900202 </i>
    <i name="ewald"> 208814.66046682 </i>
    <i name="hartreedc">-256060.67180690 </i>
    <i name="XCdc">   1517.52390192 </i>
    <i name="pawpsdc">  40244.40091181 </i>
    <i name="pawaedc"> -45425.22585731 </i>
    <i name="eentropy">     -0.07988812 </i>
    <i name="bandstr">  -1799.31940577 </i>
    <i name="atom">  51188.86509581 </i>
    <i name="e_fr_energy">   -128.18757972 </i>
    <i name="e_wo_entrp">   -128.10769160   <time name="   <time name="dav">   27.83    <time name="   <time name="total">   29.43   29.50</time>
     <time name="total">   29.46   29.53</time>
   <dipole>
    <v name="dipole">      0.00000000       0.00000000      -0.20309932 </v>
    <i name="Tr[quadrupol]">  -3834.78052890 </i>
    <i name="Echarged">      0.00000000 </i>
    <i name="Edipol_quadrupol">      0.00000000 </i>
    <i name="Eion">      0.00000000 </i>
   </dipole>
   <energy>
    <i name="e_fr_energy">   -128.01252793 </i>
    <i name="e_wo_entrp">   -127.93291254 </i>
    <i name="e_0_ene   <time name="   <time name="dav">   28.22    <time name="   <time name="total">   29.79   29.86</time>
     <time name="total">   30.10   30.17</time>
   <dipole>
    <v name="dipole">      0.00000000       0.00000000      -0.19772642 </v>
    <i name="Tr[quadrupol]">  -3834.78981196 </i>
    <i name="Echarged">      0.00000000 </i>
    <i name="Edipol_quadrupol">      0.00000000 </i>
    <i name="Eion">      0.00000000 </i>
   </dipole>
   <energy>
    <i name="e_fr_energy">   -128.01211376 </i>
    <i name="e_wo_entrp">   -127.93242999 </i>
    <i name="e_0_ene   <time name="   <time name="dav">   34.92   35.01</time>
   <time name="total">   36.50   36.59</time>
   <dipole>
    <v name="dipole">      0.00000000       0.00000000      -0.21603644 </v>
    <i name="Tr[quadrupol]">  -3845.45642967 </i>
    <i name="Echarged">      0.00000000 </i>
    <i name="Edipol_quadrupol">      0.00000000 </i>
    <i name="Eion">      0.00000000 </i>
   </dipole>
   <energy>
    <i name="e_fr_energy">   -128.10299497 </i>
    <i name="e_wo_entrp">   -128.02176329 </i>
    <i name="e_0_energy">   -128.06237913 </i>
   </energy>
  </scst   <time name="   <time name="dav">   41.79   41.88</time>
   <time name="total">   43.39   43.49</time>
   <dipole>
    <v name="dip   <time name="total">   43.44   43.55</time>
   <dipole>
    <v name="dipole">      0.00000000       0.00000000      -0.20039243 </v>
    <i name="Tr[quadrupol]">  -3859.90910911 </i>
    <i name="Echarged">      0.00000000 </i>
    <i name="Edipol_quadrupol">      0.00000000 </i>
    <i name="Eion">      0.00000000 </i>
   </dipole>
   <energy>
    <i name="e_fr_energy">   -128.18850974 </i>
    <i name="e_wo_entrp">   -128.10870031   <time name="   <time name="dav">   27.79   27.86</time>
   <   <time name="dav">   37.64   37.73</time>
   <time name="total">   39.23   39.32</time>
   <dipole>
    <v name="dipole">      0.00000000       0.00000000      -0.20200592 </v>
    <i name="Tr[quadrupol]">  -3834.92120741 </i>
    <i name="Echarged">      0.00000000 </i>
    <i name="Edipol_quadrupol">      0.00000000 </i>
    <i name="Eion">      0.00000000 </i>
   </dipole>
   <energy>
    <i name="e_fr_energy">   -128.01101143 </i>
    <i name="e_wo_entrp">   -127.93131243 </i>
    <i name="e_0_ene   <time name="   <time name="dav">   27.32   27.38</time>
   <   <time name="dav">   28.03   28.10</time>
   <time name="total">   29.55   29.62</time>
   <dipole>
    <v name="dipole">      0.00000000       0.00000000      -0.20280767 </v>
    <i name="Tr[quadrupol]">  -3834.88849031 </i>
    <i name="Echarged">      0.00000000 </i>
    <i name="Edipol_quadrupol">      0.00000000 </i>
    <i name="Eion">      0.00000000 </i>
   </dipole>
   <energy>
    <i name="e_fr_energy">   -128.01103098 </i>
    <i name="e_wo_entrp">   -127.93134302 </i>
    <i name="e_0_ene   <time name="dav">   27.32   27.39</time>
   <time name="tota   <time name="dav">   26.16   26.22</time>
   <time name="total">   26.39   26.46</time>
   <dipole>
    <v name="dipole">      0.00000000       0.00000000      -0.20269739 </v>
    <i name="Tr[quadrupol]">  -3834.85360410 </i>
    <i name="Echarged">      0.00000000 </i>
    <i name="Edipol_quadrupol">      0.00000000 </i>
    <i name="Eion">      0.00000000 </i>
   </dipole>
   <energy>
[...]
       <r>   -10.7119     0.0000     0.0000 </r>
       <r>   -10.6525     0.0000     0.0000 </r>
       <r>   -10.5932     0.0008     0.0000 </r>
       <r>   -10.5338     0.0105     0.0007 </r>
       <r>   -10.4745     0.0714     0.0049 </r>
       <r>   -10.4151     0.2656     0.0207 </r>
       <r>   -10.3558     0.6471     0.0591 </r>
       <r>   -10.2965     1.3700     0.1404 </r>
       <r>   -10.2371     2.3965     0.2826 </r>
       <r>   -10.1778     2.6081     0.4374 </r>
       <r>   -10.1184     1.5844     0.5314 </r>
       <r>   -10.0591     0.8601     0.5824 </r>
       <r>    -9.9997     1.4842     0.6705 </r>
       <r>    -9.9404     2.7414     0.8332 </r>
       <r>    -9.8810     3.3390     1.0314 </r>
       <r>    -9.8217     3.3540     1.2304 </r>
       <r>    -9.7624     2.8242     1.3980 </r>
       <r>    -9.7030     1.5289     1.4887 </r>
       <r>    -9.6437     0.4596     1.5160 </r>
       <r>    -9.5843     0.1697     1.5261 </r>
       <r>    -9.5250     0.7013     1.5677 </r>
       <r>    -9.4656     2.5217     1.7173 </r>
       <r>    -9.4063     4.7887     2.0015 </r>
       <r>    -9.3469     4.7905     2.2858 </r>
       <r>    -9.2876     2.6669     2.4441 </r>
       <r>    -9.2283     1.5238     2.5345 </r>
       <r>    -9.1689     2.2796     2.6698 </r>
       <r>    -9.1096     3.0850     2.8529 </r>
       <r>    -9.0502     2.7923     3.0186 </r>
       <r>    -8.9909     2.6510     3.1759 </r>
       <r>    -8.9315     2.8833     3.3470 </r>
       <r>    -8.8722     2.4886     3.4947 </r>
       <r>    -8.8128     2.6718     3.6532 </r>
       <r>    -8.7535     4.7794     3.9369 </r>
       <r>    -8.6942     7.6785     4.3925 </r>
       <r>    -8.6348     9.3455     4.9471 </r>
       <r>    -8.5755     8.3739     5.4441 </r>
       <r>    -8.5161     5.2545     5.7559 </r>
       <r>    -8.4568     2.2291     5.8882 </r>
       <r>    -8.3974     1.0362     5.9497 </r>
       <r>    -8.3381     1.9234     6.0638 </r>
       <r>    -8.2787     4.0630     6.3049 </r>
       <r>    -8.2194     5.8950     6.6548 </r>
       <r>    -8.1601     5.9861     7.0100 </r>
       <r>    -8.1007     4.2632     7.2630 </r>
       <r>    -8.0414     3.2508     7.4559 </r>
       <r>    -7.9820     5.2250     7.7660 </r>
       <r>    -7.9227     7.6942     8.2226 </r>
       <r>    -7.8633     6.9198     8.6333 </r>
       <r>    -7.8040     5.2132     8.9426 </r>
       <r>    -7.7447     5.6555     9.2782 </r>
       <r>    -7.6853     6.0961     9.6400 </r>
       <r>    -7.6260     5.7980     9.9841 </r>
       <r>    -7.5666     6.4849    10.3689 </r>
       <r>    -7.5073     7.4632    10.8118 </r>
       <r>    -7.4479     7.6481    11.2657 </r>
       <r>    -7.3886     7.3252    11.7004 </r>
       <r>    -7.3292     6.1667    12.0664 </r>
       <r>    -7.2699     4.8344    12.3533 </r>
       <r>    -7.2106     5.4787    12.6784 </r>
       <r>    -7.1512     8.4257    13.1784 </r>
       <r>    -7.0919    11.9492    13.8875 </r>
       <r>    -7.0325    13.2075    14.6713 </r>
       <r>    -6.9732    13.0019    15.4429 </r>
       <r>    -6.9138    14.3089    16.2920 </r>
       <r>    -6.8545    14.9549    17.1795 </r>
       <r>    -6.7951    13.0896    17.9563 </r>
       <r>    -6.7358    10.8064    18.5976 </r>
       <r>    -6.6765    10.4112    19.2155 </r>
       <r>    -6.6171    11.3222    19.8874 </r>
       <r>    -6.5578    12.4056    20.6236 </r>
       <r>    -6.4984    16.9691    21.6306 </r>
       <r>    -6.4391    28.3411    23.3125 </r>
       <r>    -6.3797    39.2784    25.6434 </r>
       <r>    -6.3204    39.9296    28.0130 </r>
       <r>    -6.2610    34.4361    30.0566 </r>
       <r>    -6.2017    32.0891    31.9609 </r>
       <r>    -6.1424    33.1774    33.9298 </r>
       <r>    -6.0830    36.6621    36.1054 </r>
       <r>    -6.0237    43.0617    38.6609 </r>
       <r>    -5.9643    49.6475    41.6072 </r>
       <r>    -5.9050    55.4482    44.8977 </r>
       <r>    -5.8456    60.8017    48.5060 </r>
       <r>    -5.7863    68.2305    52.5550 </r>
       <r>    -5.7269    79.9661    57.3006 </r>
       <r>    -5.6676    86.9627    62.4613 </r>
       <r>    -5.6083    82.4668    67.3552 </r>
       <r>    -5.5489    75.9586    71.8629 </r>
       <r>    -5.4896    75.6069    76.3498 </r>
       <r>    -5.4302    77.8355    80.9688 </r>
       <r>    -5.3709    78.2705    85.6137 </r>
       <r>    -5.3115    79.8727    90.3537 </r>
       <r>    -5.2522    83.6277    95.3165 </r>
       <r>    -5.1929    84.8647   100.3528 </r>
       <r>    -5.1335    83.9825   105.3366 </r>
       <r>    -5.0742    84.5704   110.3554 </r>
       <r>    -5.0148    84.7264   115.3834 </r>
       <r>    -4.9555    83.1714   120.3192 </r>
       <r>    -4.8961    79.5278   125.0387 </r>
       <r>    -4.8368    79.2841   129.7437 </r>
       <r>    -4.7774    92.3201   135.2224 </r>
       <r>    -4.7181   111.0260   141.8111 </r>
       <r>    -4.6588   121.6729   149.0317 </r>
       <r>    -4.5994   126.0393   156.5114 </r>
       <r>    -4.5401   133.9632   164.4613 </r>
       <r>    -4.4807   146.8637   173.1768 </r>
       <r>    -4.4214   156.6819   182.4750 </r>
       <r>    -4.3620   161.3845   192.0522 </r>
       <r>    -4.3027   165.6500   201.8826 </r>
       <r>    -4.2433   164.1412   211.6234 </r>
       <r>    -4.1840   148.9542   220.4630 </r>
       <r>    -4.1247   127.9759   228.0576 </r>
       <r>    -4.0653   117.8527   235.0515 </r>
       <r>    -4.0060   128.9668   242.7049 </r>
       <r>    -3.9466   144.2088   251.2629 </r>
       <r>    -3.8873   137.1977   259.4048 </r>
       <r>    -3.8279   118.1524   266.4164 </r>
       <r>    -3.7686   113.0937   273.1279 </r>
       <r>    -3.7092   123.3719   280.4493 </r>
       <r>    -3.6499   139.1951   288.7097 </r>
       <r>    -3.5906   156.4345   297.9932 </r>
       <r>    -3.5312   167.1239   307.9110 </r>
       <r>    -3.4719   161.4679   317.4932 </r>
       <r>    -3.4125   154.9265   326.6872 </r>
       <r>    -3.3532   174.0235   337.0145 </r>
       <r>    -3.2938   207.5455   349.3311 </r>
       <r>    -3.2345   215.0898   362.0954 </r>
       <r>    -3.1751   178.8434   372.7087 </r>
       <r>    -3.1158   120.1555   379.8392 </r>
       <r>    -3.0565    71.8037   384.1004 </r>
       <r>    -2.9971    44.9187   386.7660 </r>
       <r>    -2.9378    31.4108   388.6301 </r>
       <r>    -2.8784    24.0553   390.0576 </r>
       <r>    -2.8191    18.7834   391.1723 </r>
       <r>    -2.7597    15.2104   392.0750 </r>
       <r>    -2.7004    15.2837   392.9820 </r>
       <r>    -2.6411    16.1414   393.9399 </r>
       <r>    -2.5817    13.9521   394.7678 </r>
       <r>    -2.5224    10.4040   395.3852 </r>
       <r>    -2.4630     8.2478   395.8747 </r>
       <r>    -2.4037     7.8044   396.3379 </r>
       <r>    -2.3443    10.9723   396.9890 </r>
       <r>    -2.2850    19.2650   398.1323 </r>
       <r>    -2.2256    25.1141   399.6226 </r>
       <r>    -2.1663    20.5528   400.8423 </r>
       <r>    -2.1070    12.4809   401.5830 </r>
       <r>    -2.0476     8.7358   402.1014 </r>
       <r>    -1.9883     7.1862   402.5279 </r>
       <r>    -1.9289     4.8635   402.8165 </r>
       <r>    -1.8696     2.9222   402.9899 </r>
       <r>    -1.8102     4.1749   403.2377 </r>
       <r>    -1.7509    10.3542   403.8521 </r>
       <r>    -1.6915    17.6826   404.9015 </r>
       <r>    -1.6322    19.3985   406.0527 </r>
       <r>    -1.5729    16.9403   407.0580 </r>
       <r>    -1.5135    15.2701   407.9642 </r>
       <r>    -1.4542    13.9796   408.7938 </r>
       <r>    -1.3948    12.0309   409.5077 </r>
       <r>    -1.3355    10.9395   410.1569 </r>
       <r>    -1.2761    12.6138   410.9055 </r>
       <r>    -1.2168    17.1872   411.9254 </r>
       <r>    -1.1574    18.7640   413.0390 </r>
       <r>    -1.0981    13.8745   413.8624 </r>
       <r>    -1.0388     8.8471   414.3874 </r>
       <r>    -0.9794     7.8636   414.8540 </r>
       <r>    -0.9201     8.3818   415.3514 </r>
       <r>    -0.8607     7.1502   415.7758 </r>
       <r>    -0.8014     4.9835   416.0715 </r>
       <r>    -0.7420     4.3916   416.3321 </r>
       <r>    -0.6827     4.9674   416.6269 </r>
       <r>    -0.6233     5.7020   416.9653 </r>
       <r>    -0.5640     7.3135   417.3993 </r>
       <r>    -0.5047    11.6302   418.0895 </r>
       <r>    -0.4453    18.7854   419.2043 </r>
       <r>    -0.3860    25.0909   420.6933 </r>
       <r>    -0.3266    26.0988   422.2421 </r>
       <r>    -0.2673    21.1354   423.4964 </r>
       <r>    -0.2079    14.1435   424.3357 </r>
       <r>    -0.1486    10.0233   424.9305 </r>
       <r>    -0.0893     9.8719   425.5164 </r>
       <r>    -0.0299     9.8724   426.1022 </r>
       <r>     0.0294     7.9856   426.5761 </r>
       <r>     0.0888     7.2632   427.0072 </r>
       <r>     0.1481     9.4084   427.5655 </r>
       <r>     0.2075    11.7233   428.2612 </r>
       <r>     0.2668    11.1759   428.9244 </r>
       <r>     0.3262     9.4342   429.4843 </r>
       <r>     0.3855    10.2614   430.0932 </r>
       <r>     0.4448    12.8014   430.8529 </r>
       <r>     0.5042    12.9946   431.6241 </r>
       <r>     0.5635    10.2445   432.2320 </r>
       <r>     0.6229     8.4055   432.7309 </r>
       <r>     0.6822     8.5120   433.2360 </r>
       <r>     0.7416     8.5294   433.7422 </r>
       <r>     0.8009     8.3356   434.2368 </r>
       <r>     0.8603     9.7660   434.8164 </r>
       <r>     0.9196    13.1318   435.5957 </r>
       <r>     0.9789    16.8360   436.5948 </r>
       <r>     1.0383    21.3707   437.8630 </r>
       <r>     1.0976    24.6559   439.3262 </r>
       <r>     1.1570    21.9680   440.6299 </r>
       <r>     1.2163    14.2787   441.4772 </r>
       <r>     1.2757     6.6264   441.8705 </r>
       <r>     1.3350     2.5406   442.0213 </r>
       <r>     1.3944     2.2096   442.1524 </r>
       <r>     1.4537     3.3890   442.3535 </r>
       <r>     1.5130     4.5188   442.6217 </r>
       <r>     1.5724     5.9312   442.9736 </r>
       <r>     1.6317     7.1066   443.3954 </r>
       <r>     1.6911     7.3727   443.8329 </r>
       <r>     1.7504     7.9916   444.3072 </r>
       <r>     1.8098     8.8504   444.8324 </r>
       <r>     1.8691     8.1613   445.3167 </r>
       <r>     1.9285     7.8928   445.7851 </r>
       <r>     1.9878    10.3630   446.4001 </r>
       <r>     2.0471    11.6219   447.0898 </r>
       <r>     2.1065     8.7335   447.6080 </r>
       <r>     2.1658     5.7880   447.9515 </r>
       <r>     2.2252     5.8618   448.2994 </r>
       <r>     2.2845     7.1012   448.7208 </r>
       <r>     2.3439     6.5619   449.1102 </r>
       <r>     2.4032     4.2674   449.3635 </r>
       <r>     2.4625     3.6569   449.5805 </r>
       <r>     2.5219     6.7848   449.9831 </r>
       <r>     2.5812    11.4941   450.6652 </r>
       <r>     2.6406    14.2913   451.5133 </r>
       <r>     2.6999    14.9018   452.3977 </r>
       <r>     2.7593    14.0359   453.2306 </r>
       <r>     2.8186    12.5507   453.9754 </r>
       <r>     2.8780    13.1935   454.7584 </r>
       <r>     2.9373    14.7715   455.6350 </r>
       <r>     2.9966    14.3883   456.4888 </r>
       <r>     3.0560    14.0501   457.3226 </r>
       <r>     3.1153    14.6340   458.1911 </r>
       <r>     3.1747    14.4724   459.0499 </r>
       <r>     3.2340    14.5532   459.9136 </r>
       <r>     3.2934    14.8655   460.7958 </r>
       <r>     3.3527    14.1785   461.6372 </r>
       <r>     3.4121    13.1175   462.4156 </r>
       <r>     3.4714    12.8596   463.1788 </r>
       <r>     3.5307    15.7459   464.1132 </r>
       <r>     3.5901    20.8509   465.3506 </r>
       <r>     3.6494    22.7268   466.6993 </r>
       <r>     3.7088    20.2518   467.9011 </r>
       <r>     3.7681    18.0379   468.9715 </r>
       <r>     3.8275    17.4646   470.0080 </r>
       <r>     3.8868    16.5146   470.9880 </r>
       <r>     3.9462    15.6087   471.9143 </r>
       <r>     4.0055    17.3735   472.9453 </r>
       <r>     4.0648    20.4951   474.1616 </r>
       <r>     4.1242    20.5619   475.3818 </r>
       <r>     4.1835    18.2143   476.4627 </r>
       <r>     4.2429    17.4815   477.5001 </r>
       <r>     4.3022    19.9023   478.6812 </r>
       <r>     4.3616    23.3418   480.0664 </r>
       <r>     4.4209    26.3757   481.6317 </r>
       <r>     4.4803    27.6835   483.2745 </r>
       <r>     4.5396    24.8216   484.7476 </r>
       <r>     4.5989    21.0178   485.9948 </r>
       <r>     4.6583    19.0166   487.1234 </r>
       <r>     4.7176    16.7510   488.1174 </r>
       <r>     4.7770    15.2203   489.0207 </r>
       <r>     4.8363    16.2751   489.9865 </r>
       <r>     4.8957    17.6553   491.0342 </r>
       <r>     4.9550    18.0767   492.1070 </r>
       <r>     5.0143    17.4943   493.1452 </r>
       <r>     5.0737    15.2784   494.0519 </r>
       <r>     5.1330    12.3255   494.7833 </r>
       <r>     5.1924     8.9764   495.3160 </r>
       <r>     5.2517     5.7189   495.6554 </r>
       <r>     5.3111     3.0909   495.8388 </r>
       <r>     5.3704     1.3142   495.9168 </r>
       <r>     5.4298     0.6297   495.9542 </r>
       <r>     5.4891     0.4502   495.9809 </r>
       <r>     5.5484     0.2410   495.9952 </r>
       <r>     5.6078     0.0699   495.9993 </r>
       <r>     5.6671     0.0104   496.0000 </r>
       <r>     5.7265     0.0008   496.0000 </r>
       <r>     5.7858     0.0000   496.0000 </r>
       <r>     5.8452     0.0000   496.0000 </r>
       <r>     5.9045     0.0000   496.0000 </r>
       <r>     5.9639     0.0000   496.0000 </r>
       <r>     6.0232     0.0000   496.0000 </r>
       <r>     6.0825     0.0000   496.0000 </r>
       <r>     6.1419     0.0000   496.0000 </r>
       <r>     6.2012     0.0000   496.0000 </r>
       <r>     6.2606     0.0000   496.0000 </r>
       <r>     6.3199     0.0000   496.0000 </r>
       <r>     6.3793     0.0000   496.0000 </r>
       <r>     6.4386     0.0000   496.0000 </r>
      </set>
     </set>
    </array>
   </total>
  </dos>
 </calculation>
 <structure name="finalpos" >
  <crystal>
   <varray name="basis" >
    <v>       7.71239996       0.00000000       0.00000000 </v>
    <v>      -3.85619998       6.67913429       0.00000000 </v>
    <v>       0.00000000       0.00000000      24.29719925 </v>
   </varray>
   <i name="volume">   1251.60109432 </i>
   <varray name="rec_basis" >
    <v>       0.12966133       0.07486000       0.00000000 </v>
    <v>       0.00000000       0.14972000       0.00000000 </v>
    <v>       0.00000000       0.00000000       0.04115701 </v>
   </varray>
  </crystal>
  <varray name="positions" >
   <v>       0.33333055       0.66666952       0.99998117 </v>
   <v>       0.33333155       0.99999968       0.99998127 </v>
   <v>       0.00000034       0.66666851       0.99998127 </v>
   <v>       0.00000106       0.99999894       0.99998137 </v>
   <v>       0.33333374       0.33333358       0.99998160 </v>
   <v>       0.66666645       0.66666631       0.99998160 </v>
   <v>       0.66666550       0.99999855       0.99998166 </v>
   <v>       0.00000144       0.33333452       0.99998166 </v>
   <v>       0.66666864       0.33333139       0.99998187 </v>
   <v>       0.44444232       0.22222301       0.08654002 </v>
   <v>       0.77777700       0.55555767       0.08654002 </v>
   <v>       0.11110840       0.55555772       0.08654003 </v>
   <v>       0.44444228       0.88889164       0.08654003 </v>
   <v>       0.44444159       0.55555839       0.08654015 </v>
   <v>       0.77777882       0.22222117       0.08654017 </v>
   <v>       0.11110945       0.88889061       0.08654046 </v>
   <v>       0.11110991       0.22222219       0.08654066 </v>
   <v>       0.77777783       0.88889014       0.08654066 </v>
   <v>       0.22102131       0.11231079       0.17208929 </v>
   <v>       0.88815352       0.77822439       0.17239205 </v>
   <v>       0.88723676       0.11269408       0.17267431 </v>
   <v>       0.22131518       0.78108196       0.17362347 </v>
   <v>       0.55511187       0.44517823       0.17239256 </v>
   <v>       0.55225462       0.11201440       0.17362361 </v>
   <v>       0.88883155       0.44450237       0.17368837 </v>
   <v>       0.22063838       0.44609616       0.17267475 </v>
   <v>       0.55427157       0.77906315       0.17292465 </v>
   <v>       0.33149223       0.67117627       0.25844699 </v>
   <v>       0.32876367       1.00457230       0.26130075 </v>
   <v>      -0.00224545       0.66638261       0.25893621 </v>
   <v>       0.33785129       0.34275097       0.25624758 </v>
   <v>       0.66476871       0.66856405       0.25770250 </v>
   <v>      -0.00941830       0.99548336       0.25624781 </v>
   <v>       0.66216086       1.00183951       0.25844758 </v>
   <v>       0.00078864       0.33254257       0.26049290 </v>
   <v>       0.66695242       0.33557454       0.25893671 </v>
   <v>       0.18376749       0.14956228       0.34430921 </v>
  </varray>
  <varray name="selective"  type="logical" >
   <v type="logical" >  F  F  F </v>
   <v type="logical" >  F  F  F </v>
   <v type="logical" >  F  F  F </v>
   <v type="logical" >  F  F  F </v>
   <v type="logical" >  F  F  F </v>
   <v type="logical" >  F  F  F </v>
   <v type="logical" >  F  F  F </v>
   <v type="logical" >  F  F  F </v>
   <v type="logical" >  F  F  F </v>
   <v type="logical" >  F  F  F </v>
   <v type="logical" >  F  F  F </v>
   <v type="logical" >  F  F  F </v>
   <v type="logical" >  F  F  F </v>
   <v type="logical" >  F  F  F </v>
   <v type="logical" >  F  F  F </v>
   <v type="logical" >  F  F  F </v>
   <v type="logical" >  F  F  F </v>
   <v type="logical" >  F  F  F </v>
   <v type="logical" >  T  T  T </v>
   <v type="logical" >  T  T  T </v>
   <v type="logical" >  T  T  T </v>
   <v type="logical" >  T  T  T </v>
   <v type="logical" >  T  T  T </v>
   <v type="logical" >  T  T  T </v>
   <v type="logical" >  T  T  T </v>
   <v type="logical" >  T  T  T </v>
   <v type="logical" >  T  T  T </v>
   <v type="logical" >  T  T  T </v>
   <v type="logical" >  T  T  T </v>
   <v type="logical" >  T  T  T </v>
   <v type="logical" >  T  T  T </v>
   <v type="logical" >  T  T  T </v>
   <v type="logical" >  T  T  T </v>
   <v type="logical" >  T  T  T </v>
   <v type="logical" >  T  T  T </v>
   <v type="logical" >  T  T  T </v>
   <v type="logical" >  T  T  T </v>
  </varray>
  <nose>
   <v>      -3.00000000       0.00000000       0.00010000       0.00010000 </v>
  </nose>
 </structure>
</modeling>
    0.00010000 </v>
  </nose>
 </structure>
</modeling>
  T  T </v>
   <v type="logical" >  T  T  T </v>
   <v type="logical" >  T  T  T </v>
   <v type="logical" >  T  T  T </v>
   <v type="logical" >  T  T  T </v>
   <v type="logical" >  T  T  T </v>
   <v type="logical" >  T  T  T </v>
   <v type="logical" >  T  T  T </v>
   <v type="logical" >  T  T  T </v>
   <v type="logical" >  T  T  T </v>
   <v type="logical" >  T  T  T </v>
   <v type="logical" >  T  T  T </v>
  </varray>
  <nose>
   <v>      -3.00000000       0.00000000       0.00010000       0.00010000 </v>
  </nose>
 </structure>
</modeling>
type="logical" >  T  T  T </v>
   <v type="logical" >  T  T  T </v>
   <v type="logical" >  T  T  T </v>
   <v type="logical" >  T  T  T </v>
   <v type="logical" >  T  T  T </v>
   <v type="logical" >  T  T  T </v>
   <v type="logical" >  T  T  T </v>
   <v type="logical" >  T  T  T </v>
   <v type="logical" >  T  T  T </v>
   <v type="logical" >  T  T  T </v>
   <v type="logical" >  T  T  T </v>
   <v type="logical" >  T  T  T </v>
   <v type="logical" >  T  T  T </v>
  </varray>
  <nose>
   <v>      -3.00000000       0.00000000       0.00010000       0.00010000 </v>
  </nose>
 </structure>
</modeling>
