 running on   40 total cores
 distrk:  each k-point on   40 cores,    1 groups
 distr:  one band on    1 cores,   40 groups
 using from now: INCAR     
 vasp.5.4.1 05Feb16 (build Nov 22 2018 20:17:51) complex                        
  
 POSCAR found type information on POSCAR  Cu Ag
 POSCAR found :  2 types and      37 ions
 scaLAPACK will be used

 ----------------------------------------------------------------------------- 
|                                                                             |
|           W    W    AA    RRRRR   N    N  II  N    N   GGGG   !!!           |
|           W    W   A  A   R    R  NN   N  II  NN   N  G    G  !!!           |
|           W    W  A    A  R    R  N N  N  II  N N  N  G       !!!           |
|           W WW W  AAAAAA  RRRRR   N  N N  II  N  N N  G  GGG   !            |
|           WW  WW  A    A  R   R   N   NN  II  N   NN  G    G                |
|           W    W  A    A  R    R  N    N  II  N    N   GGGG   !!!           |
|                                                                             |
|      For optimal performance we recommend to set                            |
|        NCORE= 4 - approx SQRT( number of cores)                             |
|      NCORE specifies how many cores store one orbital (NPAR=cpu/NCORE).     |
|      This setting can  greatly improve the performance of VASP for DFT.     |
|      The default, NPAR=number of cores might be grossly inefficient         |
|      on modern multi-core architectures or massively parallel machines.     |
|      Do your own testing !!!!                                               |
|      Unfortunately you need to use the default for GW and RPA calculations. |
|      (for HF NCORE is supported but not extensively tested yet)             |
|                                                                             |
 ----------------------------------------------------------------------------- 

 LDA part: xc-table for Ceperly-Alder, standard interpolation
 POSCAR found type information on POSCAR  Cu Ag
 POSCAR found :  2 types and      37 ions
 POSCAR, INCAR and KPOINTS ok, starting setup
 WARNING: small aliasing (wrap around) errors must be expected
 FFT: planning ...
 WAVECAR not read
 entering main loop
       N       E                     dE             d eps       ncg     rms          rms(c)
DAV:   1     0.289677802735E+04    0.28968E+04   -0.17789E+05  5040   0.156E+03
DAV:   2     0.947146169226E+02   -0.28021E+04   -0.26370E+04  5040   0.348E+02
DAV:   3    -0.150860530082E+03   -0.24558E+03   -0.23731E+03  5760   0.134E+02
DAV:   4    -0.155537920776E+03   -0.46774E+01   -0.46700E+01  5680   0.216E+01
DAV:   5    -0.155562780535E+03   -0.24860E-01   -0.24859E-01  6040   0.124E+00    0.397E+01
DAV:   6    -0.141081478836E+03    0.14481E+02   -0.26607E+02  5840   0.826E+01    0.202E+01
DAV:   7    -0.128058044101E+03    0.13023E+02   -0.55630E+01  6120   0.446E+01    0.296E+00
DAV:   8    -0.128765940345E+03   -0.70790E+00   -0.91725E+00  6360   0.346E+01    0.498E+00
DAV:   9    -0.127948941203E+03    0.81700E+00   -0.45855E+00  6840   0.252E+01    0.252E+00
DAV:  10    -0.127872518715E+03    0.76422E-01   -0.67149E-01  6960   0.742E+00    0.157E+00
DAV:  11    -0.127845007028E+03    0.27512E-01   -0.34647E-01  5760   0.450E+00    0.608E-01
DAV:  12    -0.127843561789E+03    0.14452E-02   -0.71759E-02  5680   0.144E+00    0.379E-01
DAV:  13    -0.127837400761E+03    0.61610E-02   -0.18859E-02  5600   0.121E+00    0.211E-01
DAV:  14    -0.127834585335E+03    0.28154E-02   -0.73797E-03  5760   0.785E-01    0.134E-01
DAV:  15    -0.127832199429E+03    0.23859E-02   -0.34320E-03  6080   0.557E-01    0.961E-02
DAV:  16    -0.127830117991E+03    0.20814E-02   -0.19304E-03  5720   0.253E-01    0.498E-02
DAV:  17    -0.127829552477E+03    0.56551E-03   -0.87562E-04  5440   0.283E-01    0.573E-02
DAV:  18    -0.127830550385E+03   -0.99791E-03   -0.41447E-04  5600   0.158E-01    0.262E-02
DAV:  19    -0.127833276170E+03   -0.27258E-02   -0.52350E-04  5600   0.117E-01    0.195E-02
DAV:  20    -0.127834649062E+03   -0.13729E-02   -0.25358E-04  5760   0.618E-02    0.182E-02
DAV:  21    -0.127835084090E+03   -0.43503E-03   -0.19630E-04  5760   0.727E-02    0.132E-02
DAV:  22    -0.127835110406E+03   -0.26317E-04   -0.48782E-05  4440   0.821E-02    0.145E-02
DAV:  23    -0.127835108403E+03    0.20034E-05   -0.20815E-05  4200   0.448E-02
   1 F= -.12783511E+03 E0= -.12779326E+03  d E =-.127835E+03
 curvature:   0.00 expect dE= 0.000E+00 dE for cont linesearch  0.000E+00
 trial: gam= 0.00000 g(F)=  0.151E+00 g(S)=  0.000E+00 ort = 0.000E+00 (trialstep = 0.100E+01)
 search vector abs. value=  0.151E+00
 bond charge predicted
       N       E                     dE             d eps       ncg     rms          rms(c)
DAV:   1    -0.127962164648E+03   -0.12705E+00   -0.98664E+00  5480   0.510E+00    0.181E-01
DAV:   2    -0.127968256695E+03   -0.60920E-02   -0.69117E-02  6040   0.129E+00    0.196E-01
DAV:   3    -0.127968082215E+03    0.17448E-03   -0.77043E-03  5720   0.106E+00    0.104E-01
DAV:   4    -0.127968030443E+03    0.51772E-04   -0.37084E-03  6000   0.784E-01    0.919E-02
DAV:   5    -0.127967755809E+03    0.27463E-03   -0.15717E-03  6040   0.525E-01    0.570E-02
DAV:   6    -0.127967696533E+03    0.59277E-04   -0.53633E-04  6600   0.181E-01    0.166E-02
DAV:   7    -0.127967696831E+03   -0.29879E-06   -0.13367E-04  5640   0.851E-02    0.117E-02
DAV:   8    -0.127967696556E+03    0.27506E-06   -0.36793E-05  5440   0.435E-02
   2 F= -.12796770E+03 E0= -.12792625E+03  d E =-.132588E+00
 ZBRENT: can't locate minimum, use default step
 trial-energy change:   -0.132588  1 .order   -0.133035   -0.151441   -0.114629
 step:   4.0000(harm=  4.1140)  dis= 0.11563  next Energy=  -128.146619 (dE=-0.312E+00)
 bond charge predicted
       N       E                     dE             d eps       ncg     rms          rms(c)
DAV:   1    -0.128123401930E+03   -0.15571E+00   -0.90503E+01  5040   0.156E+01    0.548E-01
DAV:   2    -0.128182372896E+03   -0.58971E-01   -0.66841E-01  5720   0.385E+00    0.627E-01
DAV:   3    -0.128178526805E+03    0.38461E-02   -0.47748E-02  5680   0.242E+00    0.280E-01
DAV:   4    -0.128177916521E+03    0.61028E-03   -0.10065E-02  6280   0.106E+00    0.235E-01
DAV:   5    -0.128178599736E+03   -0.68321E-03   -0.20316E-02  5480   0.197E+00    0.229E-01
DAV:   6    -0.128176270860E+03    0.23289E-02   -0.90084E-03  7040   0.119E+00    0.374E-02
DAV:   7    -0.128176323347E+03   -0.52486E-04   -0.11645E-03  5560   0.163E-01    0.273E-02
DAV:   8    -0.128176331548E+03   -0.82012E-05   -0.30694E-04  5480   0.125E-01    0.217E-02
DAV:   9    -0.128176329587E+03    0.19611E-05   -0.66668E-05  5600   0.735E-02
   3 F= -.12817633E+03 E0= -.12813615E+03  d E =-.341221E+00
 curvature:  -2.05 expect dE=-0.144E-01 dE for cont linesearch -0.130E-01
 ZBRENT: extrapolating
 opt :   5.1089  next Energy=  -128.193481 (dE=-0.358E+00)
 bond charge predicted
       N       E                     dE             d eps       ncg     rms          rms(c)
DAV:   1    -0.128190708360E+03   -0.14377E-01   -0.12153E+01  5040   0.570E+00    0.194E-01
DAV:   2    -0.128197436583E+03   -0.67282E-02   -0.78484E-02  5400   0.114E+00    0.187E-01
DAV:   3    -0.128197282622E+03    0.15396E-03   -0.59075E-03  5280   0.768E-01    0.964E-02
DAV:   4    -0.128197145937E+03    0.13668E-03   -0.83409E-04  5720   0.332E-01    0.713E-02
DAV:   5    -0.128197334947E+03   -0.18901E-03   -0.20063E-03  7080   0.595E-01    0.680E-02
DAV:   6    -0.128197030372E+03    0.30458E-03   -0.16194E-03  7520   0.552E-01    0.179E-02
DAV:   7    -0.128197032798E+03   -0.24254E-05   -0.12455E-04  5280   0.832E-02    0.861E-03
DAV:   8    -0.128197034835E+03   -0.20374E-05   -0.29534E-05  5600   0.287E-02
   4 F= -.12819703E+03 E0= -.12815733E+03  d E =-.361926E+00
 curvature:  -2.71 expect dE=-0.421E-02 dE for cont linesearch -0.105E-02
 ZBRENT: extrapolating
 opt :   5.4982  next Energy=  -128.198415 (dE=-0.363E+00)
 bond charge predicted
       N       E                     dE             d eps       ncg     rms          rms(c)
DAV:   1    -0.128197610180E+03   -0.57738E-03   -0.14941E+00  5040   0.199E+00    0.685E-02
DAV:   2    -0.128198382977E+03   -0.77280E-03   -0.91683E-03  5600   0.367E-01    0.603E-02
DAV:   3    -0.128198380217E+03    0.27600E-05   -0.76905E-04  5640   0.262E-01    0.349E-02
DAV:   4    -0.128198367502E+03    0.12715E-04   -0.15856E-04  5760   0.170E-01    0.268E-02
DAV:   5    -0.128198377387E+03   -0.98847E-05   -0.24315E-04  5800   0.224E-01    0.261E-02
DAV:   6    -0.128198348941E+03    0.28446E-04   -0.18355E-04  5560   0.178E-01    0.456E-03
DAV:   7    -0.128198348023E+03    0.91837E-06   -0.30149E-05  4720   0.468E-02
   5 F= -.12819835E+03 E0= -.12815881E+03  d E =-.363240E+00
 curvature:  -3.59 expect dE=-0.486E-02 dE for cont linesearch -0.300E-05
 ZBRENT: bracketing found
 ZBRENT: interpolating
 opt :   5.4809  next Energy=  -128.198351 (dE=-0.363E+00)
 bond charge predicted
       N       E                     dE             d eps       ncg     rms          rms(c)
DAV:   1    -0.128198348800E+03    0.14086E-06   -0.29617E-03  5280   0.906E-02    0.366E-03
DAV:   2    -0.128198351207E+03   -0.24065E-05   -0.21839E-05  4680   0.373E-02
   6 F= -.12819835E+03 E0= -.12815881E+03  d E =-.363243E+00
 curvature:  -3.69 expect dE=-0.506E-02 dE for cont linesearch -0.135E-05
 trial: gam= 0.00750 g(F)=  0.137E-02 g(S)=  0.000E+00 ort = 0.236E-03 (trialstep = 0.190E+01)
 search vector abs. value=  0.138E-02
 bond charge predicted
       N       E                     dE             d eps       ncg     rms          rms(c)
DAV:   1    -0.128200717204E+03   -0.23684E-02   -0.29070E-01  5280   0.964E-01    0.304E-02
DAV:   2    -0.128200836086E+03   -0.11888E-03   -0.14256E-03  5560   0.139E-01    0.252E-02
DAV:   3    -0.128200833844E+03    0.22423E-05   -0.11404E-04  5280   0.997E-02    0.171E-02
DAV:   4    -0.128200830407E+03    0.34368E-05   -0.42079E-05  3920   0.102E-01
   7 F= -.12820083E+03 E0= -.12816129E+03  d E =-.247920E-02
 ZBRENT: can't locate minimum, use default step
 trial-energy change:   -0.002479  1 .order   -0.002466   -0.002603   -0.002329
 step:   7.5847(harm= 18.0405)  dis= 0.01625  next Energy=  -128.210734 (dE=-0.124E-01)
 bond charge predicted
       N       E                     dE             d eps       ncg     rms          rms(c)
DAV:   1    -0.128205667282E+03   -0.48334E-02   -0.26208E+00  5040   0.289E+00    0.898E-02
DAV:   2    -0.128206735394E+03   -0.10681E-02   -0.12566E-02  5680   0.440E-01    0.750E-02
DAV:   3    -0.128206799916E+03   -0.64522E-04   -0.20601E-03  5400   0.538E-01    0.682E-02
DAV:   4    -0.128206677020E+03    0.12290E-03   -0.91945E-04  5320   0.430E-01    0.400E-02
DAV:   5    -0.128206639389E+03    0.37632E-04   -0.31299E-04  6800   0.232E-01    0.261E-02
DAV:   6    -0.128206624357E+03    0.15031E-04   -0.12969E-04  5680   0.139E-01    0.676E-03
DAV:   7    -0.128206626976E+03   -0.26183E-05   -0.40921E-05  5600   0.412E-02
   8 F= -.12820663E+03 E0= -.12816703E+03  d E =-.827577E-02
 curvature:  -5.28 expect dE=-0.284E-02 dE for cont linesearch -0.265E-02
 ZBRENT: increasing intervall
 opt :  18.9618  next Energy=  -128.211612 (dE=-0.133E-01)
 bond charge predicted
       N       E                     dE             d eps       ncg     rms          rms(c)
DAV:   1    -0.128208231239E+03   -0.16069E-02   -0.10488E+01  5040   0.579E+00    0.174E-01
DAV:   2    -0.128212662618E+03   -0.44314E-02   -0.51509E-02  5760   0.887E-01    0.157E-01
DAV:   3    -0.128212602809E+03    0.59810E-04   -0.42039E-03  5800   0.684E-01    0.101E-01
DAV:   4    -0.128212603713E+03   -0.90447E-06   -0.25794E-03  5720   0.713E-01    0.854E-02
DAV:   5    -0.128212403056E+03    0.20066E-03   -0.30257E-03  8080   0.743E-01    0.595E-02
DAV:   6    -0.128212253265E+03    0.14979E-03   -0.71028E-04  7080   0.342E-01    0.122E-02
DAV:   7    -0.128212261617E+03   -0.83520E-05   -0.13579E-04  5400   0.594E-02    0.101E-02
DAV:   8    -0.128212262705E+03   -0.10875E-05   -0.32135E-05  5520   0.398E-02
   9 F= -.12821226E+03 E0= -.12817259E+03  d E =-.139115E-01
 curvature:  -9.93 expect dE=-0.336E-02 dE for cont linesearch -0.165E-03
 ZBRENT: extrapolating
 opt :  21.4961  next Energy=  -128.212455 (dE=-0.141E-01)
 bond charge predicted
       N       E                     dE             d eps       ncg     rms          rms(c)
DAV:   1    -0.128212239116E+03    0.22501E-04   -0.51969E-01  5040   0.129E+00    0.401E-02
DAV:   2    -0.128212458514E+03   -0.21940E-03   -0.25599E-03  5360   0.206E-01    0.354E-02
DAV:   3    -0.128212456496E+03    0.20181E-05   -0.22598E-04  5560   0.160E-01    0.229E-02
DAV:   4    -0.128212457690E+03   -0.11941E-05   -0.14023E-04  5200   0.167E-01    0.196E-02
DAV:   5    -0.128212445291E+03    0.12399E-04   -0.13602E-04  3960   0.162E-01    0.127E-02
DAV:   6    -0.128212439751E+03    0.55399E-05   -0.36553E-05  4760   0.730E-02
  10 F= -.12821244E+03 E0= -.12817276E+03  d E =-.140885E-01
 curvature: -11.54 expect dE=-0.447E-02 dE for cont linesearch -0.757E-05
 trial: gam= 0.31629 g(F)=  0.387E-03 g(S)=  0.000E+00 ort =-0.301E-04 (trialstep = 0.582E+01)
 search vector abs. value=  0.507E-03
 bond charge predicted
       N       E                     dE             d eps       ncg     rms          rms(c)
DAV:   1    -0.128213997644E+03   -0.15524E-02   -0.10276E+00  5040   0.179E+00    0.553E-02
DAV:   2    -0.128214445347E+03   -0.44770E-03   -0.53740E-03  5760   0.285E-01    0.500E-02
DAV:   3    -0.128214441631E+03    0.37162E-05   -0.51251E-04  5760   0.218E-01    0.321E-02
DAV:   4    -0.128214436407E+03    0.52242E-05   -0.21636E-04  5680   0.215E-01    0.273E-02
DAV:   5    -0.128214421775E+03    0.14632E-04   -0.25713E-04  5600   0.226E-01    0.205E-02
DAV:   6    -0.128214403859E+03    0.17916E-04   -0.99500E-05  5040   0.122E-01    0.391E-03
DAV:   7    -0.128214405374E+03   -0.15154E-05   -0.30810E-05  5000   0.342E-02
  11 F= -.12821441E+03 E0= -.12817477E+03  d E =-.196562E-02
 trial-energy change:   -0.001966  1 .order   -0.001874   -0.002198   -0.001550
 step:  11.1307(harm= 19.7293)  dis= 0.01559  next Energy=  -128.215183 (dE=-0.274E-02)
 bond charge predicted
       N       E                     dE             d eps       ncg     rms          rms(c)
DAV:   1    -0.128215167819E+03   -0.76396E-03   -0.85809E-01  5040   0.163E+00    0.500E-02
DAV:   2    -0.128215544896E+03   -0.37708E-03   -0.44990E-03  5360   0.260E-01    0.454E-02
DAV:   3    -0.128215542245E+03    0.26518E-05   -0.42445E-04  5280   0.196E-01    0.291E-02
DAV:   4    -0.128215537259E+03    0.49857E-05   -0.16678E-04  5480   0.189E-01    0.245E-02
DAV:   5    -0.128215527136E+03    0.10122E-04   -0.20901E-04  5280   0.204E-01    0.190E-02
DAV:   6    -0.128215511254E+03    0.15882E-04   -0.83339E-05  4520   0.115E-01    0.357E-03
DAV:   7    -0.128215512467E+03   -0.12127E-05   -0.26254E-05  4800   0.321E-02
  12 F= -.12821551E+03 E0= -.12817592E+03  d E =-.307272E-02
 curvature:  -8.18 expect dE=-0.660E-03 dE for cont linesearch -0.157E-03
 ZBRENT: increasing intervall
 opt :  21.7599  next Energy=  -128.214777 (dE=-0.234E-02)
 bond charge predicted
       N       E                     dE             d eps       ncg     rms          rms(c)
DAV:   1    -0.128214202501E+03    0.13088E-02   -0.34332E+00  5040   0.327E+00    0.999E-02
DAV:   2    -0.128215709896E+03   -0.15074E-02   -0.17963E-02  5360   0.512E-01    0.900E-02
DAV:   3    -0.128215687855E+03    0.22041E-04   -0.15088E-03  5280   0.357E-01    0.563E-02
DAV:   4    -0.128215645020E+03    0.42835E-04   -0.40525E-04  5720   0.299E-01    0.442E-02
DAV:   5    -0.128215661800E+03   -0.16780E-04   -0.82888E-04  6440   0.410E-01    0.413E-02
DAV:   6    -0.128215578866E+03    0.82934E-04   -0.50285E-04  7960   0.289E-01    0.714E-03
DAV:   7    -0.128215579031E+03   -0.16422E-06   -0.71947E-05  5640   0.576E-02
  13 F= -.12821558E+03 E0= -.12817607E+03  d E =-.313928E-02
 curvature:  38.27 expect dE= 0.666E-02 dE for cont linesearch  0.160E-02
 ZBRENT: bracketing found
 ZBRENT: interpolating
 opt :  15.4225  next Energy=  -128.215724 (dE=-0.328E-02)
 bond charge predicted
       N       E                     dE             d eps       ncg     rms          rms(c)
DAV:   1    -0.128215359751E+03    0.21912E-03   -0.12198E+00  5040   0.195E+00    0.607E-02
DAV:   2    -0.128215880737E+03   -0.52099E-03   -0.63117E-03  5760   0.302E-01    0.547E-02
DAV:   3    -0.128215870938E+03    0.97988E-05   -0.50402E-04  5280   0.197E-01    0.334E-02
DAV:   4    -0.128215846165E+03    0.24774E-04   -0.71615E-05  5840   0.121E-01    0.237E-02
DAV:   5    -0.128215833749E+03    0.12416E-04   -0.60744E-05  6280   0.679E-02    0.430E-03
DAV:   6    -0.128215834637E+03   -0.88778E-06   -0.10583E-05  3880   0.249E-02
  14 F= -.12821583E+03 E0= -.12817628E+03  d E =-.339489E-02
 curvature:  -5.05 expect dE=-0.342E-03 dE for cont linesearch -0.130E-04
 ZBRENT: interpolating
 opt :  17.4075  next Energy=  -128.215878 (dE=-0.344E-02)
 bond charge predicted
       N       E                     dE             d eps       ncg     rms          rms(c)
DAV:   1    -0.128215820193E+03    0.13556E-04   -0.11968E-01  5040   0.611E-01    0.188E-02
DAV:   2    -0.128215871043E+03   -0.50850E-04   -0.61015E-04  5360   0.106E-01    0.175E-02
DAV:   3    -0.128215872086E+03   -0.10427E-05   -0.99298E-05  5760   0.113E-01
  15 F= -.12821587E+03 E0= -.12817632E+03  d E =-.343233E-02
 curvature: -16.70 expect dE=-0.135E-02 dE for cont linesearch -0.152E-04
 ZBRENT: interpolating
 opt :  16.6666  next Energy=  -128.215880 (dE=-0.344E-02)
 bond charge predicted
       N       E                     dE             d eps       ncg     rms          rms(c)
DAV:   1    -0.128215853515E+03    0.17528E-04   -0.16518E-02  5360   0.244E-01    0.754E-03
DAV:   2    -0.128215871222E+03   -0.17707E-04   -0.16552E-04  5960   0.123E-01    0.115E-02
DAV:   3    -0.128215861377E+03    0.98458E-05   -0.77660E-05  4640   0.112E-01
  16 F= -.12821586E+03 E0= -.12817632E+03  d E =-.342163E-02
 curvature:  -8.73 expect dE=-0.613E-03 dE for cont linesearch -0.457E-05
 ZBRENT: interpolating
 opt :  16.9859  next Energy=  -128.215864 (dE=-0.342E-02)
 bond charge predicted
       N       E                     dE             d eps       ncg     rms          rms(c)
DAV:   1    -0.128215863381E+03    0.78413E-05   -0.30672E-03  5280   0.101E-01    0.358E-03
DAV:   2    -0.128215864739E+03   -0.13576E-05   -0.15951E-05  4400   0.347E-02
  17 F= -.12821586E+03 E0= -.12817632E+03  d E =-.342499E-02
 curvature:  -4.97 expect dE=-0.371E-03 dE for cont linesearch -0.982E-06
 trial: gam= 0.18240 g(F)=  0.748E-04 g(S)=  0.000E+00 ort =-0.100E-04 (trialstep = 0.805E+01)
 search vector abs. value=  0.880E-04
 bond charge predicted
       N       E                     dE             d eps       ncg     rms          rms(c)
DAV:   1    -0.128216404472E+03   -0.54109E-03   -0.28606E-01  5040   0.103E+00    0.362E-02
DAV:   2    -0.128216442294E+03   -0.37822E-04   -0.73221E-04  5760   0.141E-01    0.303E-02
DAV:   3    -0.128216438319E+03    0.39751E-05   -0.16783E-04  5880   0.154E-01    0.235E-02
DAV:   4    -0.128216437374E+03    0.94519E-06   -0.13669E-04  5200   0.165E-01    0.181E-02
DAV:   5    -0.128216419807E+03    0.17567E-04   -0.96484E-05  3640   0.137E-01    0.439E-03
DAV:   6    -0.128216420643E+03   -0.83556E-06   -0.16446E-05  3880   0.252E-02
  18 F= -.12821642E+03 E0= -.12817683E+03  d E =-.555904E-03
 trial-energy change:   -0.000556  1 .order   -0.000491   -0.000587   -0.000395
 step:  24.5693(harm= 24.5693)  dis= 0.01095  next Energy=  -128.216761 (dE=-0.896E-03)
 bond charge predicted
       N       E                     dE             d eps       ncg     rms          rms(c)
DAV:   1    -0.128216930478E+03   -0.51067E-03   -0.12049E+00  5120   0.211E+00    0.715E-02
DAV:   2    -0.128217098413E+03   -0.16794E-03   -0.29577E-03  5120   0.289E-01    0.599E-02
DAV:   3    -0.128217114588E+03   -0.16176E-04   -0.95968E-04  5560   0.381E-01    0.516E-02
DAV:   4    -0.128217105678E+03    0.89104E-05   -0.87464E-04  5600   0.423E-01    0.448E-02
DAV:   5    -0.128217026807E+03    0.78871E-04   -0.45358E-04  7680   0.285E-01    0.102E-02
DAV:   6    -0.128217027034E+03   -0.22686E-06   -0.67232E-05  5360   0.507E-02
  19 F= -.12821703E+03 E0= -.12817734E+03  d E =-.116230E-02
 curvature: -14.82 expect dE=-0.479E-03 dE for cont linesearch -0.250E-05
 trial: gam= 0.37993 g(F)=  0.323E-04 g(S)=  0.000E+00 ort = 0.385E-05 (trialstep = 0.114E+02)
 search vector abs. value=  0.480E-04
 bond charge predicted
       N       E                     dE             d eps       ncg     rms          rms(c)
DAV:   1    -0.128217245025E+03   -0.21822E-03   -0.34209E-01  5040   0.108E+00    0.349E-02
DAV:   2    -0.128217352816E+03   -0.10779E-03   -0.14532E-03  5280   0.133E-01    0.263E-02
DAV:   3    -0.128217352525E+03    0.29075E-06   -0.15177E-04  5640   0.142E-01    0.218E-02
DAV:   4    -0.128217346865E+03    0.56596E-05   -0.14056E-04  4960   0.172E-01    0.164E-02
DAV:   5    -0.128217336295E+03    0.10570E-04   -0.84123E-05  3800   0.130E-01    0.930E-03
DAV:   6    -0.128217332914E+03    0.33813E-05   -0.20804E-05  3680   0.554E-02
  20 F= -.12821733E+03 E0= -.12817776E+03  d E =-.305880E-03
 trial-energy change:   -0.000306  1 .order   -0.000218   -0.000384   -0.000051
 step:  12.0049(harm= 13.1020)  dis= 0.00467  next Energy=  -128.217334 (dE=-0.307E-03)
 reached required accuracy - stopping structural energy minimisation
 writing wavefunctions
