 running on   20 total cores
 distrk:  each k-point on   20 cores,    1 groups
 distr:  one band on    1 cores,   20 groups
 using from now: INCAR     
 vasp.5.4.1 05Feb16 (build Nov 22 2018 20:17:51) complex                        
  
 POSCAR found type information on POSCAR  Pd
 POSCAR found :  1 types and      33 ions
 scaLAPACK will be used

 ----------------------------------------------------------------------------- 
|                                                                             |
|           W    W    AA    RRRRR   N    N  II  N    N   GGGG   !!!           |
|           W    W   A  A   R    R  NN   N  II  NN   N  G    G  !!!           |
|           W    W  A    A  R    R  N N  N  II  N N  N  G       !!!           |
|           W WW W  AAAAAA  RRRRR   N  N N  II  N  N N  G  GGG   !            |
|           WW  WW  A    A  R   R   N   NN  II  N   NN  G    G                |
|           W    W  A    A  R    R  N    N  II  N    N   GGGG   !!!           |
|                                                                             |
|      For optimal performance we recommend to set                            |
|        NCORE= 4 - approx SQRT( number of cores)                             |
|      NCORE specifies how many cores store one orbital (NPAR=cpu/NCORE).     |
|      This setting can  greatly improve the performance of VASP for DFT.     |
|      The default, NPAR=number of cores might be grossly inefficient         |
|      on modern multi-core architectures or massively parallel machines.     |
|      Do your own testing !!!!                                               |
|      Unfortunately you need to use the default for GW and RPA calculations. |
|      (for HF NCORE is supported but not extensively tested yet)             |
|                                                                             |
 ----------------------------------------------------------------------------- 

 LDA part: xc-table for Ceperly-Alder, standard interpolation
 POSCAR found type information on POSCAR  Pd
 POSCAR found :  1 types and      33 ions
 POSCAR, INCAR and KPOINTS ok, starting setup
 WARNING: small aliasing (wrap around) errors must be expected
 FFT: planning ...
 WAVECAR not read
 entering main loop
       N       E                     dE             d eps       ncg     rms          rms(c)
DAV:   1     0.280339544731E+04    0.28034E+04   -0.13718E+05  6000   0.138E+03
DAV:   2     0.718435901115E+02   -0.27316E+04   -0.25579E+04  6120   0.411E+02
DAV:   3    -0.154705946904E+03   -0.22655E+03   -0.20576E+03  7120   0.109E+02
DAV:   4    -0.165590540176E+03   -0.10885E+02   -0.10417E+02  6880   0.277E+01
DAV:   5    -0.165891988071E+03   -0.30145E+00   -0.30083E+00  7560   0.374E+00    0.156E+01
RMM:   6    -0.165101897778E+03    0.79009E+00   -0.23142E+01  6018   0.156E+01    0.416E+01
RMM:   7    -0.166090713619E+03   -0.98882E+00   -0.10533E+01  6089   0.592E+00    0.174E+01
RMM:   8    -0.176072813904E+03   -0.99821E+01   -0.82982E+00  6026   0.636E+00    0.270E+01
RMM:   9    -0.166256845845E+03    0.98160E+01   -0.47962E+00  6034   0.545E+00    0.193E+01
RMM:  10    -0.161701706346E+03    0.45551E+01   -0.17547E+00  6019   0.369E+00    0.100E+01
RMM:  11    -0.161169906256E+03    0.53180E+00   -0.32543E-01  6089   0.132E+00    0.832E+00
RMM:  12    -0.160826193636E+03    0.34371E+00   -0.13912E-01  6036   0.931E-01    0.722E+00
RMM:  13    -0.160451866058E+03    0.37433E+00   -0.21342E-01  6021   0.113E+00    0.652E+00
RMM:  14    -0.159835557924E+03    0.61631E+00   -0.31572E-01  6017   0.127E+00    0.506E+00
RMM:  15    -0.159436321002E+03    0.39924E+00   -0.23858E-01  6024   0.104E+00    0.441E+00
RMM:  16    -0.159153542290E+03    0.28278E+00   -0.13077E-01  6036   0.697E-01    0.368E+00
RMM:  17    -0.159029191414E+03    0.12435E+00   -0.48596E-02  6176   0.382E-01    0.334E+00
RMM:  18    -0.158784546426E+03    0.24464E+00   -0.96470E-02  6024   0.501E-01    0.264E+00
RMM:  19    -0.158558167994E+03    0.22638E+00   -0.23378E-01  6028   0.706E-01    0.806E-01
RMM:  20    -0.158554333151E+03    0.38348E-02   -0.34581E-02  6860   0.229E-01    0.575E-01
RMM:  21    -0.158554260208E+03    0.72944E-04   -0.85736E-04  6387   0.426E-02    0.580E-01
RMM:  22    -0.158558120024E+03   -0.38598E-02   -0.43289E-03  6020   0.161E-01    0.107E+00
RMM:  23    -0.158558208620E+03   -0.88596E-04   -0.12582E-02  6018   0.290E-01    0.100E+00
RMM:  24    -0.158551378929E+03    0.68297E-02   -0.24516E-03  6088   0.109E-01    0.644E-01
RMM:  25    -0.158548938161E+03    0.24408E-02   -0.16546E-03  6019   0.901E-02    0.597E-01
RMM:  26    -0.158544097608E+03    0.48406E-02   -0.21762E-03  6011   0.102E-01    0.212E-01
RMM:  27    -0.158543606271E+03    0.49134E-03   -0.35576E-03  6011   0.131E-01    0.230E-01
RMM:  28    -0.158543253443E+03    0.35283E-03   -0.36795E-04  5791   0.243E-02    0.150E-01
RMM:  29    -0.158543351044E+03   -0.97601E-04   -0.83258E-05  5177   0.215E-02    0.156E-01
RMM:  30    -0.158544809249E+03   -0.14582E-02   -0.24329E-04  5971   0.340E-02    0.292E-01
RMM:  31    -0.158546110826E+03   -0.13016E-02   -0.47656E-04  5876   0.388E-02    0.123E-01
RMM:  32    -0.158546514840E+03   -0.40401E-03   -0.98908E-05  4436   0.171E-02    0.132E-01
RMM:  33    -0.158546774442E+03   -0.25960E-03   -0.55917E-05  4188   0.115E-02    0.915E-02
RMM:  34    -0.158547220625E+03   -0.44618E-03   -0.26581E-04  5055   0.200E-02    0.298E-02
RMM:  35    -0.158547256884E+03   -0.36259E-04   -0.72708E-05  4193   0.115E-02    0.287E-02
RMM:  36    -0.158547342671E+03   -0.85788E-04   -0.30953E-05  3911   0.842E-03    0.945E-02
RMM:  37    -0.158547264043E+03    0.78628E-04   -0.76510E-06  3376   0.644E-03    0.234E-02
RMM:  38    -0.158547266573E+03   -0.25298E-05   -0.82579E-06  3405   0.528E-03
   1 F= -.15854727E+03 E0= -.15854472E+03  d E =-.158547E+03
 curvature:   0.00 expect dE= 0.000E+00 dE for cont linesearch  0.000E+00
 trial: gam= 0.00000 g(F)=  0.486E-01 g(S)=  0.000E+00 ort = 0.000E+00 (trialstep = 0.100E+01)
 search vector abs. value=  0.486E-01
 bond charge predicted
       N       E                     dE             d eps       ncg     rms          rms(c)
DAV:   1    -0.158590301287E+03   -0.43037E-01   -0.29313E+00  6460   0.282E+00    0.369E-01
RMM:   2    -0.158604958695E+03   -0.14657E-01   -0.10247E-01  6025   0.554E-01    0.798E-01
RMM:   3    -0.158602484108E+03    0.24746E-02   -0.19260E-02  6814   0.211E-01    0.785E-01
RMM:   4    -0.158601556241E+03    0.92787E-03   -0.32902E-03  6079   0.132E-01    0.780E-01
RMM:   5    -0.158596534611E+03    0.50216E-02   -0.15521E-03  6012   0.103E-01    0.191E-01
RMM:   6    -0.158596007785E+03    0.52683E-03   -0.35826E-04  6007   0.520E-02    0.103E-01
RMM:   7    -0.158595872321E+03    0.13546E-03   -0.38405E-04  6051   0.350E-02    0.826E-02
RMM:   8    -0.158595814775E+03    0.57546E-04   -0.32536E-04  6510   0.308E-02    0.634E-02
RMM:   9    -0.158595804588E+03    0.10186E-04   -0.16444E-04  5939   0.265E-02    0.501E-02
RMM:  10    -0.158595784674E+03    0.19915E-04   -0.55631E-05  4500   0.167E-02    0.245E-02
RMM:  11    -0.158595779716E+03    0.49576E-05   -0.96802E-06  3175   0.102E-02
   2 F= -.15859578E+03 E0= -.15859326E+03  d E =-.485131E-01
 ZBRENT: can't locate minimum, use default step
 trial-energy change:   -0.048513  1 .order   -0.048597   -0.048631   -0.048564
 step:   4.0000(harm=723.8450)  dis= 0.01926  next Energy=  -176.147920 (dE=-0.176E+02)
 bond charge predicted
       N       E                     dE             d eps       ncg     rms          rms(c)
DAV:   1    -0.158686194076E+03   -0.90409E-01   -0.26470E+01  6120   0.855E+00    0.131E+00
RMM:   2    -0.158908638419E+03   -0.22244E+00   -0.11821E+00  6024   0.224E+00    0.304E+00
RMM:   3    -0.159100709386E+03   -0.19207E+00   -0.27110E-01  6551   0.886E-01    0.577E+00
RMM:   4    -0.158754913113E+03    0.34580E+00   -0.77268E-02  6018   0.648E-01    0.700E-01
RMM:   5    -0.158748407928E+03    0.65052E-02   -0.17399E-02  6024   0.324E-01    0.753E-01
RMM:   6    -0.158742868163E+03    0.55398E-02   -0.41964E-03  6043   0.169E-01    0.375E-01
RMM:   7    -0.158741857616E+03    0.10105E-02   -0.17698E-03  6237   0.897E-02    0.304E-01
RMM:   8    -0.158740674143E+03    0.11835E-02   -0.30538E-03  6173   0.974E-02    0.194E-01
RMM:   9    -0.158740455949E+03    0.21819E-03   -0.26971E-03  6639   0.932E-02    0.130E-01
RMM:  10    -0.158740375587E+03    0.80362E-04   -0.89692E-04  6497   0.584E-02    0.799E-02
RMM:  11    -0.158740321950E+03    0.53637E-04   -0.17843E-04  5713   0.322E-02    0.735E-02
RMM:  12    -0.158740286526E+03    0.35424E-04   -0.60979E-05  4353   0.172E-02    0.650E-02
RMM:  13    -0.158740232513E+03    0.54013E-04   -0.10544E-04  4709   0.193E-02    0.278E-02
RMM:  14    -0.158740226601E+03    0.59125E-05   -0.35015E-05  3774   0.137E-02
   3 F= -.15874023E+03 E0= -.15873775E+03  d E =-.192960E+00
 curvature:  -3.00 expect dE=-0.138E+00 dE for cont linesearch -0.137E+00
 ZBRENT: increasing intervall
 opt :  10.0000  next Energy=  -159.013884 (dE=-0.467E+00)
 bond charge predicted
       N       E                     dE             d eps       ncg     rms          rms(c)
DAV:   1    -0.158754210854E+03   -0.13978E-01   -0.10780E+02  6000   0.177E+01    0.313E+00
RMM:   2    -0.160205383080E+03   -0.14512E+01   -0.65191E+00  6023   0.591E+00    0.762E+00
RMM:   3    -0.160871605749E+03   -0.66622E+00   -0.15644E+00  6632   0.219E+00    0.120E+01
RMM:   4    -0.159098986415E+03    0.17726E+01   -0.53302E-01  6019   0.176E+00    0.196E+00
RMM:   5    -0.159058365851E+03    0.40621E-01   -0.14483E-01  6031   0.885E-01    0.173E+00
RMM:   6    -0.159026805129E+03    0.31561E-01   -0.34267E-02  6090   0.429E-01    0.842E-01
RMM:   7    -0.159023905540E+03    0.28996E-02   -0.75365E-03  6522   0.175E-01    0.718E-01
RMM:   8    -0.159019625457E+03    0.42801E-02   -0.54975E-03  6093   0.140E-01    0.550E-01
RMM:   9    -0.159016872772E+03    0.27527E-02   -0.87499E-03  6238   0.179E-01    0.411E-01
RMM:  10    -0.159015316766E+03    0.15560E-02   -0.14496E-02  6518   0.220E-01    0.169E-01
RMM:  11    -0.159015222254E+03    0.94511E-04   -0.16712E-03  7013   0.826E-02    0.143E-01
RMM:  12    -0.159014957202E+03    0.26505E-03   -0.22545E-04  5995   0.339E-02    0.988E-02
RMM:  13    -0.159014861054E+03    0.96148E-04   -0.51448E-04  6020   0.415E-02    0.961E-02
RMM:  14    -0.159014793107E+03    0.67947E-04   -0.35504E-04  6229   0.309E-02    0.638E-02
RMM:  15    -0.159014770086E+03    0.23021E-04   -0.98182E-05  4810   0.192E-02    0.305E-02
RMM:  16    -0.159014762686E+03    0.73999E-05   -0.24026E-05  3602   0.133E-02
   4 F= -.15901476E+03 E0= -.15901232E+03  d E =-.467496E+00
 curvature:  -6.00 expect dE=-0.246E+00 dE for cont linesearch -0.230E+00
 ZBRENT: increasing intervall
 opt :  22.0000  next Energy=  -159.484700 (dE=-0.937E+00)
 bond charge predicted
       N       E                     dE             d eps       ncg     rms          rms(c)
DAV:   1    -0.158264698331E+03    0.75007E+00   -0.46425E+02  6000   0.388E+01    0.917E+00
RMM:   2    -0.177373778483E+03   -0.19109E+02   -0.46957E+01  6019   0.117E+01    0.241E+01
RMM:   3    -0.169856662796E+03    0.75171E+01   -0.11213E+01  6172   0.630E+00    0.218E+01
RMM:   4    -0.161477505100E+03    0.83792E+01   -0.42586E+00  6019   0.535E+00    0.970E+00
RMM:   5    -0.160214411797E+03    0.12631E+01   -0.11404E+00  6021   0.275E+00    0.544E+00
RMM:   6    -0.159816692503E+03    0.39772E+00   -0.54143E-01  6026   0.175E+00    0.466E+00
RMM:   7    -0.159605062741E+03    0.21163E+00   -0.18017E-01  6107   0.929E-01    0.322E+00
RMM:   8    -0.159485114393E+03    0.11995E+00   -0.11004E-01  6041   0.733E-01    0.213E+00
RMM:   9    -0.159433542180E+03    0.51572E-01   -0.59689E-02  6061   0.499E-01    0.127E+00
RMM:  10    -0.159427745908E+03    0.57963E-02   -0.17905E-02  6840   0.263E-01    0.109E+00
RMM:  11    -0.159419966634E+03    0.77793E-02   -0.13020E-02  6034   0.249E-01    0.988E-01
RMM:  12    -0.159410180153E+03    0.97865E-02   -0.30945E-02  6066   0.377E-01    0.475E-01
RMM:  13    -0.159409821834E+03    0.35832E-03   -0.92633E-03  7149   0.182E-01    0.405E-01
RMM:  14    -0.159408264226E+03    0.15576E-02   -0.76158E-04  6229   0.642E-02    0.213E-01
RMM:  15    -0.159408059796E+03    0.20443E-03   -0.59398E-04  6017   0.599E-02    0.217E-01
RMM:  16    -0.159408118252E+03   -0.58457E-04   -0.26106E-04  5995   0.419E-02    0.225E-01
RMM:  17    -0.159407696232E+03    0.42202E-03   -0.26458E-04  5906   0.338E-02    0.781E-02
RMM:  18    -0.159407677538E+03    0.18694E-04   -0.24503E-04  5347   0.324E-02    0.540E-02
RMM:  19    -0.159407666132E+03    0.11406E-04   -0.33801E-05  3899   0.132E-02    0.272E-02
RMM:  20    -0.159407672994E+03   -0.68614E-05   -0.97023E-06  3383   0.923E-03
   5 F= -.15940767E+03 E0= -.15940517E+03  d E =-.860406E+00
 curvature: -12.29 expect dE=-0.239E+00 dE for cont linesearch -0.789E-01
 ZBRENT: increasing intervall
 opt :  46.0000  next Energy=  -159.220759 (dE=-0.673E+00)
 bond charge predicted
       N       E                     dE             d eps       ncg     rms          rms(c)
DAV:   1    -0.153747881103E+03    0.56598E+01   -0.19456E+03  6400   0.894E+01    0.230E+01
RMM:   2    -0.276549616317E+03   -0.12280E+03   -0.38011E+02  7996   0.327E+01    0.528E+01
RMM:   3    -0.213381834341E+03    0.63168E+02   -0.74832E+01  6014   0.183E+01    0.437E+01
RMM:   4    -0.176274067305E+03    0.37108E+02   -0.29673E+01  6011   0.126E+01    0.269E+01
RMM:   5    -0.164967336216E+03    0.11307E+02   -0.94402E+00  6039   0.784E+00    0.139E+01
RMM:   6    -0.162984285140E+03    0.19831E+01   -0.37946E+00  6016   0.485E+00    0.132E+01
RMM:   7    -0.161404788011E+03    0.15795E+01   -0.12329E+00  6019   0.258E+00    0.106E+01
RMM:   8    -0.160381957455E+03    0.10228E+01   -0.38213E-01  6148   0.139E+00    0.851E+00
RMM:   9    -0.159309112041E+03    0.10728E+01   -0.52947E-01  6011   0.164E+00    0.639E+00
RMM:  10    -0.158723123599E+03    0.58599E+00   -0.34942E-01  6014   0.134E+00    0.452E+00
RMM:  11    -0.158636069527E+03    0.87054E-01   -0.58511E-02  6344   0.457E-01    0.422E+00
RMM:  12    -0.158518741171E+03    0.11733E+00   -0.34569E-02  6016   0.448E-01    0.373E+00
RMM:  13    -0.158306299816E+03    0.21244E+00   -0.10451E-01  6016   0.747E-01    0.252E+00
RMM:  14    -0.158229506994E+03    0.76793E-01   -0.62391E-02  6017   0.574E-01    0.181E+00
RMM:  15    -0.158180519308E+03    0.48988E-01   -0.68747E-02  6020   0.589E-01    0.780E-01
RMM:  16    -0.158177364206E+03    0.31551E-02   -0.16827E-02  6471   0.264E-01    0.591E-01
RMM:  17    -0.158176570727E+03    0.79348E-03   -0.65449E-03  6107   0.192E-01    0.597E-01
RMM:  18    -0.158189242619E+03   -0.12672E-01   -0.17376E-02  6018   0.294E-01    0.115E+00
RMM:  19    -0.158175556426E+03    0.13686E-01   -0.92181E-03  6017   0.242E-01    0.253E-01
RMM:  20    -0.158178423530E+03   -0.28671E-02   -0.62186E-03  6020   0.182E-01    0.686E-01
RMM:  21    -0.158175610290E+03    0.28132E-02   -0.49120E-04  6018   0.573E-02    0.322E-01
RMM:  22    -0.158174740275E+03    0.87001E-03   -0.81932E-04  5944   0.718E-02    0.858E-02
RMM:  23    -0.158174704363E+03    0.35912E-04   -0.10940E-04  5455   0.256E-02    0.829E-02
RMM:  24    -0.158174747793E+03   -0.43430E-04   -0.95192E-05  4955   0.194E-02    0.291E-02
RMM:  25    -0.158174810759E+03   -0.62966E-04   -0.35982E-05  3950   0.145E-02    0.580E-02
RMM:  26    -0.158174842517E+03   -0.31757E-04   -0.14157E-05  3480   0.991E-03    0.617E-02
RMM:  27    -0.158174847142E+03   -0.46250E-05   -0.42616E-05  4031   0.141E-02
   6 F= -.15817485E+03 E0= -.15817094E+03  d E =0.372419E+00
 curvature:  29.12 expect dE= 0.198E+02 dE for cont linesearch  0.138E+02
 ZBRENT: bracketing found
 ZBRENT: interpolating
 opt :  24.5055  next Energy=  -159.429806 (dE=-0.883E+00)
 bond charge predicted
       N       E                     dE             d eps       ncg     rms          rms(c)
DAV:   1    -0.151442269866E+03    0.67326E+01   -0.15813E+03  6080   0.847E+01    0.862E+00
RMM:   2    -0.171718723002E+03   -0.20276E+02   -0.16869E+02  6918   0.258E+01    0.170E+01
RMM:   3    -0.169237832698E+03    0.24809E+01   -0.11117E+01  6337   0.781E+00    0.226E+01
RMM:   4    -0.160993618098E+03    0.82442E+01   -0.35402E+00  6029   0.481E+00    0.911E+00
RMM:   5    -0.160003446876E+03    0.99017E+00   -0.10755E+00  6024   0.265E+00    0.488E+00
RMM:   6    -0.159795306210E+03    0.20814E+00   -0.41311E-01  6025   0.155E+00    0.476E+00
RMM:   7    -0.159634567361E+03    0.16074E+00   -0.14046E-01  6119   0.855E-01    0.326E+00
RMM:   8    -0.159534636842E+03    0.99931E-01   -0.18539E-01  6193   0.875E-01    0.239E+00
RMM:   9    -0.159469808291E+03    0.64829E-01   -0.14132E-01  6322   0.706E-01    0.153E+00
RMM:  10    -0.159450081221E+03    0.19727E-01   -0.12140E-01  6295   0.688E-01    0.947E-01
RMM:  11    -0.159440781191E+03    0.93000E-02   -0.30180E-02  6814   0.353E-01    0.377E-01
RMM:  12    -0.159442078232E+03   -0.12970E-02   -0.85011E-03  6036   0.229E-01    0.464E-01
RMM:  13    -0.159440090741E+03    0.19875E-02   -0.24119E-03  6017   0.131E-01    0.272E-01
RMM:  14    -0.159439416522E+03    0.67422E-03   -0.10464E-03  6016   0.854E-02    0.153E-01
RMM:  15    -0.159439249209E+03    0.16731E-03   -0.43985E-04  6008   0.533E-02    0.102E-01
RMM:  16    -0.159439218563E+03    0.30646E-04   -0.12210E-04  5955   0.287E-02    0.584E-02
RMM:  17    -0.159439347184E+03   -0.12862E-03   -0.65934E-05  5083   0.213E-02    0.463E-02
RMM:  18    -0.159439461518E+03   -0.11433E-03   -0.30594E-05  3829   0.157E-02    0.486E-02
RMM:  19    -0.159439686720E+03   -0.22520E-03   -0.33251E-05  3990   0.148E-02    0.356E-02
RMM:  20    -0.159439778779E+03   -0.92060E-04   -0.23920E-05  3722   0.109E-02    0.186E-02
RMM:  21    -0.159440007991E+03   -0.22921E-03   -0.25094E-05  3760   0.983E-03    0.703E-02
RMM:  22    -0.159440058391E+03   -0.50400E-04   -0.14123E-05  3522   0.800E-03    0.559E-02
RMM:  23    -0.159440211125E+03   -0.15273E-03   -0.20986E-05  3704   0.798E-03    0.668E-02
RMM:  24    -0.159440216597E+03   -0.54718E-05   -0.73914E-06  3391   0.483E-03
   7 F= -.15944022E+03 E0= -.15943763E+03  d E =-.892950E+00
 curvature:  -0.05 expect dE=-0.883E-03 dE for cont linesearch -0.629E-04
 ZBRENT: interpolating
 opt :  26.5107  next Energy=  -159.448729 (dE=-0.901E+00)
 bond charge predicted
       N       E                     dE             d eps       ncg     rms          rms(c)
DAV:   1    -0.159425275568E+03    0.14936E-01   -0.11720E+01  6380   0.636E+00    0.907E-01
RMM:   2    -0.159708139304E+03   -0.28286E+00   -0.52628E-01  6023   0.169E+00    0.467E+00
RMM:   3    -0.159562750062E+03    0.14539E+00   -0.11968E-01  6449   0.665E-01    0.322E+00
RMM:   4    -0.159456500936E+03    0.10625E+00   -0.51961E-02  6011   0.590E-01    0.630E-01
RMM:   5    -0.159450563162E+03    0.59378E-02   -0.10982E-02  6015   0.264E-01    0.396E-01
RMM:   6    -0.159448997965E+03    0.15652E-02   -0.15647E-03  6025   0.985E-02    0.259E-01
RMM:   7    -0.159448605104E+03    0.39286E-03   -0.45187E-04  6226   0.505E-02    0.208E-01
RMM:   8    -0.159448082047E+03    0.52306E-03   -0.13519E-03  6035   0.741E-02    0.173E-01
RMM:   9    -0.159447769889E+03    0.31216E-03   -0.21605E-03  6430   0.852E-02    0.108E-01
RMM:  10    -0.159447752468E+03    0.17421E-04   -0.63736E-04  7269   0.508E-02    0.664E-02
RMM:  11    -0.159447707075E+03    0.45393E-04   -0.68651E-05  5511   0.218E-02    0.410E-02
RMM:  12    -0.159447681355E+03    0.25720E-04   -0.40174E-05  4095   0.141E-02    0.332E-02
RMM:  13    -0.159447667708E+03    0.13646E-04   -0.46213E-05  4244   0.149E-02    0.213E-02
RMM:  14    -0.159447665533E+03    0.21749E-05   -0.27541E-05  3619   0.118E-02
   8 F= -.15944767E+03 E0= -.15944501E+03  d E =-.900399E+00
 curvature:  -6.34 expect dE=-0.138E+00 dE for cont linesearch -0.172E-03
 trial: gam= 0.47092 g(F)=  0.218E-01 g(S)=  0.000E+00 ort =-0.115E-02 (trialstep = 0.610E+01)
 search vector abs. value=  0.315E-01
 bond charge predicted
       N       E                     dE             d eps       ncg     rms          rms(c)
DAV:   1    -0.159373069389E+03    0.74598E-01   -0.69122E+01  6000   0.166E+01    0.218E+00
RMM:   2    -0.161060786051E+03   -0.16877E+01   -0.35905E+00  6024   0.498E+00    0.984E+00
RMM:   3    -0.160125217461E+03    0.93557E+00   -0.84975E-01  6800   0.172E+00    0.675E+00
RMM:   4    -0.159598143140E+03    0.52707E+00   -0.28708E-01  6017   0.142E+00    0.147E+00
RMM:   5    -0.159571785785E+03    0.26357E-01   -0.66428E-02  6017   0.648E-01    0.117E+00
RMM:   6    -0.159562239735E+03    0.95460E-02   -0.12326E-02  6086   0.269E-01    0.867E-01
RMM:   7    -0.159557527108E+03    0.47126E-02   -0.35519E-03  6165   0.144E-01    0.634E-01
RMM:   8    -0.159552559090E+03    0.49680E-02   -0.10440E-02  6218   0.205E-01    0.485E-01
RMM:   9    -0.159550048732E+03    0.25104E-02   -0.17109E-02  6787   0.246E-01    0.339E-01
RMM:  10    -0.159549592389E+03    0.45634E-03   -0.48398E-03  7941   0.138E-01    0.154E-01
RMM:  11    -0.159549388302E+03    0.20409E-03   -0.50874E-04  6010   0.610E-02    0.118E-01
RMM:  12    -0.159549296709E+03    0.91593E-04   -0.28687E-04  5995   0.380E-02    0.136E-01
RMM:  13    -0.159549105362E+03    0.19135E-03   -0.41350E-04  6064   0.369E-02    0.673E-02
RMM:  14    -0.159549079043E+03    0.26319E-04   -0.26953E-04  6938   0.304E-02    0.217E-02
RMM:  15    -0.159549083557E+03   -0.45141E-05   -0.15177E-05  3380   0.112E-02
   9 F= -.15954908E+03 E0= -.15954640E+03  d E =-.101418E+00
 trial-energy change:   -0.101418  1 .order   -0.101387   -0.129451   -0.073322
 step:  14.0734(harm= 14.0734)  dis= 0.05313  next Energy=  -159.596943 (dE=-0.149E+00)
 bond charge predicted
       N       E                     dE             d eps       ncg     rms          rms(c)
DAV:   1    -0.159272032302E+03    0.27705E+00   -0.11866E+02  6000   0.220E+01    0.310E+00
RMM:   2    -0.162902655398E+03   -0.36306E+01   -0.70598E+00  6026   0.700E+00    0.141E+01
RMM:   3    -0.160695546687E+03    0.22071E+01   -0.17046E+00  6743   0.245E+00    0.883E+00
RMM:   4    -0.159700683630E+03    0.99486E+00   -0.59197E-01  6019   0.206E+00    0.218E+00
RMM:   5    -0.159640957376E+03    0.59726E-01   -0.14156E-01  6019   0.945E-01    0.166E+00
RMM:   6    -0.159623315552E+03    0.17642E-01   -0.27741E-02  6108   0.387E-01    0.126E+00
RMM:   7    -0.159612732010E+03    0.10584E-01   -0.73673E-03  6151   0.207E-01    0.904E-01
RMM:   8    -0.159605468337E+03    0.72637E-02   -0.11622E-02  6358   0.219E-01    0.716E-01
RMM:   9    -0.159598230844E+03    0.72375E-02   -0.23188E-02  6508   0.290E-01    0.431E-01
RMM:  10    -0.159597709778E+03    0.52107E-03   -0.16444E-02  6959   0.264E-01    0.298E-01
RMM:  11    -0.159597078339E+03    0.63144E-03   -0.28282E-03  6455   0.124E-01    0.150E-01
RMM:  12    -0.159596976949E+03    0.10139E-03   -0.44051E-04  6018   0.542E-02    0.185E-01
RMM:  13    -0.159596645340E+03    0.33161E-03   -0.42042E-04  6000   0.432E-02    0.134E-01
RMM:  14    -0.159596495126E+03    0.15021E-03   -0.51183E-04  6620   0.430E-02    0.636E-02
RMM:  15    -0.159596482809E+03    0.12316E-04   -0.15368E-04  6323   0.254E-02    0.240E-02
RMM:  16    -0.159596491748E+03   -0.89384E-05   -0.16290E-05  3403   0.108E-02
  10 F= -.15959649E+03 E0= -.15959362E+03  d E =-.148826E+00
 curvature: -10.43 expect dE=-0.125E+00 dE for cont linesearch -0.607E-04
 trial: gam= 0.22182 g(F)=  0.120E-01 g(S)=  0.000E+00 ort =-0.428E-03 (trialstep = 0.770E+01)
 search vector abs. value=  0.133E-01
 bond charge predicted
       N       E                     dE             d eps       ncg     rms          rms(c)
DAV:   1    -0.159538066746E+03    0.58416E-01   -0.46008E+01  6000   0.140E+01    0.115E+00
RMM:   2    -0.159672553089E+03   -0.13449E+00   -0.14958E+00  6023   0.303E+00    0.153E+00
RMM:   3    -0.159924045823E+03   -0.25149E+00   -0.32662E-01  7982   0.108E+00    0.529E+00
RMM:   4    -0.159690837736E+03    0.23321E+00   -0.53258E-02  6031   0.581E-01    0.144E+00
RMM:   5    -0.159664078200E+03    0.26760E-01   -0.16384E-02  6019   0.352E-01    0.691E-01
RMM:   6    -0.159660332153E+03    0.37460E-02   -0.39119E-03  6024   0.156E-01    0.548E-01
RMM:   7    -0.159657352305E+03    0.29798E-02   -0.43259E-03  6451   0.125E-01    0.425E-01
RMM:   8    -0.159654525409E+03    0.28269E-02   -0.89266E-03  6299   0.185E-01    0.278E-01
RMM:   9    -0.159654408143E+03    0.11727E-03   -0.85364E-03  7239   0.181E-01    0.254E-01
RMM:  10    -0.159654279090E+03    0.12905E-03   -0.29223E-03  6901   0.113E-01    0.137E-01
RMM:  11    -0.159654069678E+03    0.20941E-03   -0.32090E-04  6014   0.476E-02    0.134E-01
RMM:  12    -0.159653769331E+03    0.30035E-03   -0.39153E-04  6026   0.434E-02    0.776E-02
RMM:  13    -0.159653714733E+03    0.54598E-04   -0.20149E-04  6971   0.275E-02    0.494E-02
RMM:  14    -0.159653688638E+03    0.26096E-04   -0.10103E-04  5834   0.201E-02    0.328E-02
RMM:  15    -0.159653680598E+03    0.80395E-05   -0.27274E-05  3463   0.120E-02
  11 F= -.15965368E+03 E0= -.15965095E+03  d E =-.571889E-01
 trial-energy change:   -0.057189  1 .order   -0.056189   -0.091509   -0.020869
 step:   9.7493(harm=  9.9701)  dis= 0.03812  next Energy=  -159.656483 (dE=-0.600E-01)
 bond charge predicted
       N       E                     dE             d eps       ncg     rms          rms(c)
DAV:   1    -0.159649930338E+03    0.37583E-02   -0.32726E+00  6160   0.371E+00    0.281E-01
RMM:   2    -0.159659007530E+03   -0.90772E-02   -0.96921E-02  6023   0.687E-01    0.405E-01
RMM:   3    -0.159674645102E+03   -0.15638E-01   -0.16808E-02  7684   0.256E-01    0.138E+00
RMM:   4    -0.159659752488E+03    0.14893E-01   -0.34862E-03  6037   0.148E-01    0.353E-01
RMM:   5    -0.159658057647E+03    0.16948E-02   -0.92044E-04  6015   0.845E-02    0.156E-01
RMM:   6    -0.159657853150E+03    0.20450E-03   -0.20446E-04  5998   0.357E-02    0.128E-01
RMM:   7    -0.159657630934E+03    0.22222E-03   -0.44340E-04  6264   0.402E-02    0.976E-02
RMM:   8    -0.159657478120E+03    0.15281E-03   -0.85356E-04  6376   0.547E-02    0.501E-02
RMM:   9    -0.159657522525E+03   -0.44406E-04   -0.41561E-04  7435   0.402E-02    0.642E-02
RMM:  10    -0.159657507665E+03    0.14860E-04   -0.80998E-05  5761   0.215E-02    0.383E-02
RMM:  11    -0.159657489838E+03    0.17827E-04   -0.10901E-05  3250   0.947E-03    0.322E-02
RMM:  12    -0.159657464429E+03    0.25409E-04   -0.55528E-05  4657   0.157E-02    0.152E-02
RMM:  13    -0.159657462217E+03    0.22123E-05   -0.16544E-05  3139   0.104E-02
  12 F= -.15965746E+03 E0= -.15965476E+03  d E =-.609705E-01
 curvature:  -5.54 expect dE=-0.193E-01 dE for cont linesearch -0.104E-03
 trial: gam= 0.23220 g(F)=  0.348E-02 g(S)=  0.000E+00 ort = 0.500E-03 (trialstep = 0.811E+01)
 search vector abs. value=  0.443E-02
 bond charge predicted
       N       E                     dE             d eps       ncg     rms          rms(c)
DAV:   1    -0.159637726135E+03    0.19738E-01   -0.17017E+01  6000   0.859E+00    0.633E-01
RMM:   2    -0.159690950384E+03   -0.53224E-01   -0.54133E-01  6029   0.163E+00    0.995E-01
RMM:   3    -0.159713442187E+03   -0.22492E-01   -0.83543E-02  8243   0.560E-01    0.189E+00
RMM:   4    -0.159705752009E+03    0.76902E-02   -0.11906E-02  6059   0.253E-01    0.160E+00
RMM:   5    -0.159682788671E+03    0.22963E-01   -0.55709E-03  6017   0.205E-01    0.387E-01
RMM:   6    -0.159681279878E+03    0.15088E-02   -0.91706E-04  6041   0.752E-02    0.325E-01
RMM:   7    -0.159679705675E+03    0.15742E-02   -0.22981E-03  6263   0.909E-02    0.240E-01
RMM:   8    -0.159678859089E+03    0.84659E-03   -0.37448E-03  6782   0.118E-01    0.157E-01
RMM:   9    -0.159678970932E+03   -0.11184E-03   -0.48138E-03  7138   0.131E-01    0.141E-01
RMM:  10    -0.159678895776E+03    0.75156E-04   -0.53917E-04  7270   0.516E-02    0.109E-01
RMM:  11    -0.159678737624E+03    0.15815E-03   -0.96384E-05  5902   0.240E-02    0.821E-02
RMM:  12    -0.159678616729E+03    0.12090E-03   -0.21525E-04  6002   0.283E-02    0.465E-02
RMM:  13    -0.159678591768E+03    0.24961E-04   -0.10037E-04  5860   0.198E-02    0.305E-02
RMM:  14    -0.159678578218E+03    0.13550E-04   -0.11775E-04  6053   0.210E-02    0.997E-03
RMM:  15    -0.159678578505E+03   -0.28703E-06   -0.16665E-05  3151   0.104E-02
  13 F= -.15967858E+03 E0= -.15967587E+03  d E =-.211163E-01
 trial-energy change:   -0.021116  1 .order   -0.020228   -0.029166   -0.011290
 step:  11.6874(harm= 13.2268)  dis= 0.01910  next Energy=  -159.681148 (dE=-0.237E-01)
 bond charge predicted
       N       E                     dE             d eps       ncg     rms          rms(c)
DAV:   1    -0.159674611958E+03    0.39663E-02   -0.33222E+00  6000   0.379E+00    0.274E-01
RMM:   2    -0.159684889491E+03   -0.10278E-01   -0.10393E-01  6029   0.698E-01    0.443E-01
RMM:   3    -0.159688489633E+03   -0.36001E-02   -0.15414E-02  8202   0.236E-01    0.764E-01
RMM:   4    -0.159687795526E+03    0.69411E-03   -0.22124E-03  6060   0.110E-01    0.708E-01
RMM:   5    -0.159683253523E+03    0.45420E-02   -0.10349E-03  6015   0.874E-02    0.161E-01
RMM:   6    -0.159682982166E+03    0.27136E-03   -0.16904E-04  5997   0.320E-02    0.138E-01
RMM:   7    -0.159682666301E+03    0.31587E-03   -0.57300E-04  6142   0.453E-02    0.104E-01
RMM:   8    -0.159682518126E+03    0.14817E-03   -0.76785E-04  6846   0.518E-02    0.632E-02
RMM:   9    -0.159682557920E+03   -0.39794E-04   -0.73879E-04  7224   0.516E-02    0.630E-02
RMM:  10    -0.159682540807E+03    0.17113E-04   -0.85067E-05  5588   0.221E-02    0.458E-02
RMM:  11    -0.159682515251E+03    0.25556E-04   -0.10630E-05  3200   0.929E-03    0.366E-02
RMM:  12    -0.159682484731E+03    0.30520E-04   -0.53346E-05  4680   0.152E-02    0.176E-02
RMM:  13    -0.159682479782E+03    0.49498E-05   -0.28302E-05  3300   0.121E-02
  14 F= -.15968248E+03 E0= -.15967977E+03  d E =-.250176E-01
 curvature:  -7.41 expect dE=-0.734E-02 dE for cont linesearch -0.396E-03
 ZBRENT: increasing intervall
 opt :  18.8484  next Energy=  -159.679479 (dE=-0.220E-01)
 bond charge predicted
       N       E                     dE             d eps       ncg     rms          rms(c)
DAV:   1    -0.159648837710E+03    0.33647E-01   -0.13283E+01  6000   0.759E+00    0.550E-01
RMM:   2    -0.159690873163E+03   -0.42035E-01   -0.42154E-01  6030   0.144E+00    0.917E-01
RMM:   3    -0.159721715759E+03   -0.30843E-01   -0.64126E-02  8273   0.478E-01    0.206E+00
RMM:   4    -0.159695682173E+03    0.26034E-01   -0.10603E-02  6046   0.245E-01    0.109E+00
RMM:   5    -0.159683717917E+03    0.11964E-01   -0.39499E-03  6018   0.175E-01    0.332E-01
RMM:   6    -0.159682832262E+03    0.88565E-03   -0.61230E-04  6064   0.580E-02    0.282E-01
RMM:   7    -0.159681586754E+03    0.12455E-02   -0.19073E-03  6226   0.825E-02    0.211E-01
RMM:   8    -0.159680943748E+03    0.64301E-03   -0.30407E-03  6850   0.106E-01    0.138E-01
RMM:   9    -0.159681050359E+03   -0.10661E-03   -0.34129E-03  7086   0.111E-01    0.123E-01
RMM:  10    -0.159680988354E+03    0.62005E-04   -0.44182E-04  7232   0.470E-02    0.947E-02
RMM:  11    -0.159680886747E+03    0.10161E-03   -0.53580E-05  5020   0.194E-02    0.743E-02
RMM:  12    -0.159680784252E+03    0.10249E-03   -0.16233E-04  5930   0.247E-02    0.449E-02
RMM:  13    -0.159680759788E+03    0.24464E-04   -0.79938E-05  5555   0.179E-02    0.281E-02
RMM:  14    -0.159680747264E+03    0.12524E-04   -0.12303E-04  6148   0.209E-02    0.711E-03
RMM:  15    -0.159680748017E+03   -0.75265E-06   -0.12852E-05  3125   0.950E-03
  15 F= -.15968075E+03 E0= -.15967803E+03  d E =-.232858E-01
 curvature:  56.13 expect dE= 0.156E+00 dE for cont linesearch  0.262E-01
 ZBRENT: bracketing found
 ZBRENT: interpolating
 opt :  13.4981  next Energy=  -159.682920 (dE=-0.255E-01)
 bond charge predicted
       N       E                     dE             d eps       ncg     rms          rms(c)
DAV:   1    -0.159665926727E+03    0.14821E-01   -0.74033E+00  6000   0.567E+00    0.414E-01
RMM:   2    -0.159688257628E+03   -0.22331E-01   -0.23170E-01  6027   0.105E+00    0.646E-01
RMM:   3    -0.159688503127E+03   -0.24550E-03   -0.35677E-02  8148   0.363E-01    0.537E-01
RMM:   4    -0.159689447207E+03   -0.94408E-03   -0.32413E-03  6040   0.147E-01    0.763E-01
RMM:   5    -0.159685043915E+03    0.44033E-02   -0.71551E-04  6040   0.650E-02    0.249E-01
RMM:   6    -0.159684541000E+03    0.50291E-03   -0.25957E-04  6011   0.433E-02    0.203E-01
RMM:   7    -0.159683816684E+03    0.72432E-03   -0.13415E-03  6084   0.700E-02    0.157E-01
RMM:   8    -0.159683563962E+03    0.25272E-03   -0.17025E-03  7016   0.759E-02    0.124E-01
RMM:   9    -0.159683602329E+03   -0.38367E-04   -0.13593E-03  6972   0.725E-02    0.105E-01
RMM:  10    -0.159683587070E+03    0.15260E-04   -0.36124E-04  7240   0.391E-02    0.787E-02
RMM:  11    -0.159683532313E+03    0.54757E-04   -0.22134E-05  3520   0.139E-02    0.671E-02
RMM:  12    -0.159683453874E+03    0.78439E-04   -0.87374E-05  5640   0.193E-02    0.442E-02
RMM:  13    -0.159683420422E+03    0.33451E-04   -0.90537E-05  5764   0.180E-02    0.235E-02
RMM:  14    -0.159683411442E+03    0.89807E-05   -0.95566E-05  5853   0.189E-02
  16 F= -.15968341E+03 E0= -.15968070E+03  d E =-.259492E-01
 curvature:  -0.94 expect dE=-0.112E-02 dE for cont linesearch -0.331E-04
 ZBRENT: bisectioning
 opt :  16.1732  next Energy=  -159.684283 (dE=-0.268E-01)
 bond charge predicted
       N       E                     dE             d eps       ncg     rms          rms(c)
DAV:   1    -0.159678857367E+03    0.45631E-02   -0.18480E+00  6000   0.283E+00    0.209E-01
RMM:   2    -0.159684477687E+03   -0.56203E-02   -0.57881E-02  6031   0.519E-01    0.328E-01
RMM:   3    -0.159686956768E+03   -0.24791E-02   -0.86484E-03  8173   0.176E-01    0.608E-01
RMM:   4    -0.159686156783E+03    0.79999E-03   -0.13350E-03  6055   0.854E-02    0.523E-01
RMM:   5    -0.159683618876E+03    0.25379E-02   -0.61510E-04  6013   0.676E-02    0.119E-01
RMM:   6    -0.159683468934E+03    0.14994E-03   -0.96513E-05  5751   0.241E-02    0.100E-01
RMM:   7    -0.159683304839E+03    0.16409E-03   -0.31066E-04  6139   0.336E-02    0.772E-02
RMM:   8    -0.159683227328E+03    0.77512E-04   -0.38522E-04  6829   0.367E-02    0.480E-02
RMM:   9    -0.159683244762E+03   -0.17434E-04   -0.38581E-04  7098   0.376E-02    0.463E-02
RMM:  10    -0.159683236083E+03    0.86784E-05   -0.49544E-05  4658   0.170E-02
  17 F= -.15968324E+03 E0= -.15968052E+03  d E =-.257739E-01
 curvature: -24.86 expect dE=-0.447E-01 dE for cont linesearch -0.205E-02
 ZBRENT: interpolating
 opt :  14.5548  next Energy=  -159.683620 (dE=-0.262E-01)
 bond charge predicted
       N       E                     dE             d eps       ncg     rms          rms(c)
DAV:   1    -0.159682087227E+03    0.11575E-02   -0.68002E-01  6000   0.172E+00    0.102E-01
RMM:   2    -0.159684208693E+03   -0.21215E-02   -0.19578E-02  6031   0.306E-01    0.216E-01
RMM:   3    -0.159685193872E+03   -0.98518E-03   -0.30548E-03  8336   0.103E-01    0.389E-01
RMM:   4    -0.159684142717E+03    0.10512E-02   -0.32527E-04  6028   0.445E-02    0.178E-01
RMM:   5    -0.159683809135E+03    0.33358E-03   -0.11775E-04  5899   0.300E-02    0.802E-02
RMM:   6    -0.159683775319E+03    0.33816E-04   -0.18545E-05  3299   0.110E-02    0.727E-02
RMM:   7    -0.159683689076E+03    0.86243E-04   -0.17363E-04  6346   0.262E-02    0.546E-02
RMM:   8    -0.159683650495E+03    0.38582E-04   -0.26908E-04  6932   0.310E-02    0.371E-02
RMM:   9    -0.159683654120E+03   -0.36256E-05   -0.12756E-04  6210   0.228E-02    0.299E-02
RMM:  10    -0.159683649817E+03    0.43036E-05   -0.21306E-05  3343   0.113E-02
  18 F= -.15968365E+03 E0= -.15968094E+03  d E =-.261876E-01
 curvature:  -2.53 expect dE=-0.333E-02 dE for cont linesearch -0.201E-04
 trial: gam= 0.49770 g(F)=  0.132E-02 g(S)=  0.000E+00 ort =-0.188E-03 (trialstep = 0.940E+01)
 search vector abs. value=  0.223E-02
 bond charge predicted
       N       E                     dE             d eps       ncg     rms          rms(c)
DAV:   1    -0.159665963044E+03    0.17691E-01   -0.11445E+01  6000   0.688E+00    0.592E-01
RMM:   2    -0.159825266310E+03   -0.15930E+00   -0.40858E-01  6032   0.147E+00    0.353E+00
RMM:   3    -0.159726940663E+03    0.98326E-01   -0.71240E-02  7180   0.491E-01    0.166E+00
RMM:   4    -0.159698594960E+03    0.28346E-01   -0.19632E-02  6019   0.369E-01    0.478E-01
RMM:   5    -0.159695312237E+03    0.32827E-02   -0.20766E-03  6020   0.121E-01    0.293E-01
RMM:   6    -0.159694761813E+03    0.55042E-03   -0.57166E-04  6136   0.570E-02    0.249E-01
RMM:   7    -0.159694051327E+03    0.71049E-03   -0.13990E-03  6258   0.771E-02    0.217E-01
RMM:   8    -0.159693280893E+03    0.77043E-03   -0.36979E-03  6331   0.115E-01    0.101E-01
RMM:   9    -0.159693371905E+03   -0.91012E-04   -0.19432E-03  7830   0.824E-02    0.839E-02
RMM:  10    -0.159693323836E+03    0.48068E-04   -0.94184E-05  5930   0.249E-02    0.685E-02
RMM:  11    -0.159693278977E+03    0.44860E-04   -0.22516E-05  3490   0.137E-02    0.547E-02
RMM:  12    -0.159693223880E+03    0.55097E-04   -0.11097E-04  5710   0.216E-02    0.365E-02
RMM:  13    -0.159693204603E+03    0.19276E-04   -0.91670E-05  5524   0.181E-02    0.145E-02
RMM:  14    -0.159693204728E+03   -0.12495E-06   -0.19153E-05  3226   0.110E-02
  19 F= -.15969320E+03 E0= -.15969058E+03  d E =-.955491E-02
 trial-energy change:   -0.009555  1 .order   -0.008519   -0.011492   -0.005546
 step:  12.9817(harm= 18.1611)  dis= 0.00578  next Energy=  -159.694320 (dE=-0.107E-01)
 bond charge predicted
       N       E                     dE             d eps       ncg     rms          rms(c)
DAV:   1    -0.159691758002E+03    0.14466E-02   -0.16674E+00  6120   0.262E+00    0.218E-01
RMM:   2    -0.159713565592E+03   -0.21808E-01   -0.56824E-02  6034   0.520E-01    0.135E+00
RMM:   3    -0.159699913902E+03    0.13652E-01   -0.93052E-03  7089   0.180E-01    0.583E-01
RMM:   4    -0.159696546334E+03    0.33676E-02   -0.25723E-03  6019   0.133E-01    0.201E-01
RMM:   5    -0.159695993811E+03    0.55252E-03   -0.29449E-04  6011   0.472E-02    0.108E-01
RMM:   6    -0.159695914492E+03    0.79318E-04   -0.74482E-05  5073   0.212E-02    0.915E-02
RMM:   7    -0.159695789599E+03    0.12489E-03   -0.30451E-04  6245   0.354E-02    0.767E-02
RMM:   8    -0.159695712881E+03    0.76718E-04   -0.54148E-04  6325   0.429E-02    0.368E-02
RMM:   9    -0.159695721944E+03   -0.90628E-05   -0.16678E-04  6622   0.251E-02    0.285E-02
RMM:  10    -0.159695718769E+03    0.31750E-05   -0.12127E-05  3285   0.956E-03
  20 F= -.15969572E+03 E0= -.15969312E+03  d E =-.120690E-01
 curvature: -10.76 expect dE=-0.672E-02 dE for cont linesearch -0.131E-02
 ZBRENT: increasing intervall
 opt :  20.1522  next Energy=  -159.698957 (dE=-0.153E-01)
 bond charge predicted
       N       E                     dE             d eps       ncg     rms          rms(c)
DAV:   1    -0.159682297458E+03    0.13424E-01   -0.66540E+00  6000   0.524E+00    0.460E-01
RMM:   2    -0.159770261214E+03   -0.87964E-01   -0.23609E-01  6034   0.109E+00    0.266E+00
RMM:   3    -0.159716500479E+03    0.53761E-01   -0.40289E-02  7204   0.370E-01    0.123E+00
RMM:   4    -0.159701529230E+03    0.14971E-01   -0.11428E-02  6019   0.282E-01    0.398E-01
RMM:   5    -0.159699308287E+03    0.22209E-02   -0.13019E-03  6020   0.992E-02    0.214E-01
RMM:   6    -0.159698984083E+03    0.32420E-03   -0.34412E-04  6098   0.450E-02    0.178E-01
RMM:   7    -0.159698566847E+03    0.41724E-03   -0.94026E-04  6292   0.621E-02    0.150E-01
RMM:   8    -0.159698230143E+03    0.33670E-03   -0.19211E-03  6405   0.824E-02    0.703E-02
RMM:   9    -0.159698278302E+03   -0.48159E-04   -0.81039E-04  7784   0.540E-02    0.611E-02
RMM:  10    -0.159698259082E+03    0.19220E-04   -0.45808E-05  4449   0.181E-02    0.512E-02
RMM:  11    -0.159698234976E+03    0.24105E-04   -0.15253E-05  3272   0.130E-02    0.399E-02
RMM:  12    -0.159698207714E+03    0.27262E-04   -0.46415E-05  4240   0.147E-02    0.283E-02
RMM:  13    -0.159698195816E+03    0.11898E-04   -0.50688E-05  4482   0.153E-02    0.110E-02
RMM:  14    -0.159698196469E+03   -0.65237E-06   -0.16771E-05  3202   0.108E-02
  21 F= -.15969820E+03 E0= -.15969565E+03  d E =-.145467E-01
 curvature: -26.59 expect dE=-0.156E-01 dE for cont linesearch -0.705E-06
 trial: gam= 0.14680 g(F)=  0.588E-03 g(S)=  0.000E+00 ort = 0.768E-05 (trialstep = 0.115E+02)
 search vector abs. value=  0.639E-03
 bond charge predicted
       N       E                     dE             d eps       ncg     rms          rms(c)
DAV:   1    -0.159690826309E+03    0.73695E-02   -0.49822E+00  6000   0.463E+00    0.366E-01
RMM:   2    -0.159770935813E+03   -0.80110E-01   -0.16876E-01  6027   0.897E-01    0.267E+00
RMM:   3    -0.159710210564E+03    0.60725E-01   -0.27973E-02  7037   0.323E-01    0.679E-01
RMM:   4    -0.159705280313E+03    0.49303E-02   -0.62206E-03  6020   0.207E-01    0.394E-01
RMM:   5    -0.159703361398E+03    0.19189E-02   -0.97248E-04  6021   0.876E-02    0.181E-01
RMM:   6    -0.159703098427E+03    0.26297E-03   -0.31487E-04  6032   0.443E-02    0.161E-01
RMM:   7    -0.159702739808E+03    0.35862E-03   -0.78159E-04  6271   0.555E-02    0.115E-01
RMM:   8    -0.159702562231E+03    0.17758E-03   -0.10859E-03  6716   0.618E-02    0.594E-02
RMM:   9    -0.159702622234E+03   -0.60002E-04   -0.55819E-04  7549   0.465E-02    0.714E-02
RMM:  10    -0.159702593779E+03    0.28455E-04   -0.67001E-05  5136   0.201E-02    0.426E-02
RMM:  11    -0.159702574635E+03    0.19144E-04   -0.14854E-05  3278   0.112E-02    0.382E-02
RMM:  12    -0.159702545891E+03    0.28743E-04   -0.60790E-05  5079   0.169E-02    0.166E-02
RMM:  13    -0.159702543762E+03    0.21298E-05   -0.15331E-05  3172   0.989E-03
  22 F= -.15970254E+03 E0= -.15969998E+03  d E =-.434729E-02
 trial-energy change:   -0.004347  1 .order   -0.003420   -0.006809   -0.000031
 step:  11.5764(harm= 11.6001)  dis= 0.00921  next Energy=  -159.702544 (dE=-0.435E-02)
 bond charge predicted
       N       E                     dE             d eps       ncg     rms          rms(c)
DAV:   1    -0.159702546444E+03   -0.55267E-06   -0.71260E-05  6940   0.166E-02    0.437E-03
RMM:   2    -0.159702568217E+03   -0.21773E-04   -0.68321E-06  3213   0.777E-03    0.489E-02
RMM:   3    -0.159702549098E+03    0.19118E-04   -0.31191E-06  3160   0.657E-03    0.122E-02
RMM:   4    -0.159702547351E+03    0.17476E-05   -0.78855E-07  3057   0.302E-03
  23 F= -.15970255E+03 E0= -.15969998E+03  d E =-.435088E-02
 curvature:  -5.00 expect dE=-0.327E-03 dE for cont linesearch -0.158E-04
 ZBRENT: increasing intervall
 opt :  11.6340  next Energy=  -159.702552 (dE=-0.436E-02)
 bond charge predicted
       N       E                     dE             d eps       ncg     rms          rms(c)
DAV:   1    -0.159702550672E+03   -0.15739E-05   -0.12551E-04  6420   0.234E-02    0.467E-03
RMM:   2    -0.159702607245E+03   -0.56572E-04   -0.96780E-06  3265   0.728E-03    0.802E-02
RMM:   3    -0.159702553204E+03    0.54041E-04   -0.72154E-06  3222   0.965E-03    0.722E-03
RMM:   4    -0.159702551453E+03    0.17510E-05   -0.13180E-06  3088   0.380E-03
  24 F= -.15970255E+03 E0= -.15969999E+03  d E =-.435498E-02
 curvature:  -1.59 expect dE=-0.103E-03 dE for cont linesearch -0.368E-05
 ZBRENT: increasing intervall
 opt :  11.7490  next Energy=  -159.702555 (dE=-0.436E-02)
 bond charge predicted
       N       E                     dE             d eps       ncg     rms          rms(c)
DAV:   1    -0.159702556705E+03   -0.35016E-05   -0.50481E-04  6460   0.466E-02    0.515E-03
RMM:   2    -0.159702612277E+03   -0.55572E-04   -0.19045E-05  3329   0.102E-02    0.786E-02
RMM:   3    -0.159702560401E+03    0.51876E-04   -0.94743E-06  3218   0.104E-02    0.842E-03
RMM:   4    -0.159702558352E+03    0.20491E-05   -0.23119E-06  3094   0.483E-03
  25 F= -.15970256E+03 E0= -.15969999E+03  d E =-.436188E-02
 curvature:  -1.59 expect dE=-0.102E-03 dE for cont linesearch -0.144E-05
 ZBRENT: increasing intervall
 opt :  11.9792  next Energy=  -159.702561 (dE=-0.436E-02)
 bond charge predicted
       N       E                     dE             d eps       ncg     rms          rms(c)
DAV:   1    -0.159702565240E+03   -0.48384E-05   -0.20135E-03  6260   0.929E-02    0.720E-03
RMM:   2    -0.159702649148E+03   -0.83908E-04   -0.67397E-05  5266   0.179E-02    0.936E-02
RMM:   3    -0.159702574076E+03    0.75072E-04   -0.13105E-05  3265   0.965E-03    0.114E-02
RMM:   4    -0.159702571132E+03    0.29442E-05   -0.46084E-06  3158   0.800E-03
  26 F= -.15970257E+03 E0= -.15970001E+03  d E =-.437466E-02
 curvature:  -2.46 expect dE=-0.162E-03 dE for cont linesearch -0.689E-06
 ZBRENT: increasing intervall
 opt :  12.4395  next Energy=  -159.702572 (dE=-0.438E-02)
 bond charge predicted
       N       E                     dE             d eps       ncg     rms          rms(c)
DAV:   1    -0.159702567157E+03    0.69194E-05   -0.80078E-03  6040   0.185E-01    0.135E-02
RMM:   2    -0.159702821593E+03   -0.25444E-03   -0.26267E-04  5964   0.354E-02    0.161E-01
RMM:   3    -0.159702599037E+03    0.22256E-03   -0.45007E-05  4526   0.151E-02    0.208E-02
RMM:   4    -0.159702589529E+03    0.95084E-05   -0.10508E-05  3248   0.114E-02
  27 F= -.15970259E+03 E0= -.15970002E+03  d E =-.439306E-02
 curvature:  -4.39 expect dE=-0.336E-03 dE for cont linesearch -0.163E-05
 ZBRENT: bracketing found
 ZBRENT: interpolating
 opt :  12.1931  next Energy=  -159.702573 (dE=-0.438E-02)
 bond charge predicted
       N       E                     dE             d eps       ncg     rms          rms(c)
DAV:   1    -0.159702575889E+03    0.23148E-04   -0.22045E-03  6180   0.987E-02    0.145E-02
RMM:   2    -0.159702586231E+03   -0.10342E-04   -0.98442E-05  5638   0.199E-02    0.280E-02
RMM:   3    -0.159702605024E+03   -0.18793E-04   -0.15446E-05  3282   0.101E-02    0.542E-02
RMM:   4    -0.159702587415E+03    0.17609E-04   -0.10737E-05  3249   0.100E-02    0.254E-02
RMM:   5    -0.159702580053E+03    0.73621E-05   -0.45624E-06  3082   0.827E-03
  28 F= -.15970258E+03 E0= -.15970001E+03  d E =-.438358E-02
 curvature:  -3.84 expect dE=-0.263E-03 dE for cont linesearch -0.689E-05
 ZBRENT: interpolating
 opt :  12.3624  next Energy=  -159.702590 (dE=-0.439E-02)
 bond charge predicted
       N       E                     dE             d eps       ncg     rms          rms(c)
DAV:   1    -0.159702582196E+03    0.52182E-05   -0.10397E-03  6400   0.675E-02    0.760E-03
RMM:   2    -0.159702610994E+03   -0.28797E-04   -0.35494E-05  3846   0.136E-02    0.549E-02
RMM:   3    -0.159702586582E+03    0.24412E-04   -0.10328E-05  3160   0.102E-02    0.131E-02
RMM:   4    -0.159702585605E+03    0.97683E-06   -0.47887E-06  3053   0.682E-03
  29 F= -.15970259E+03 E0= -.15970002E+03  d E =-.438914E-02
 curvature:  -0.33 expect dE=-0.244E-04 dE for cont linesearch -0.301E-07
 trial: gam= 0.16020 g(F)=  0.735E-04 g(S)=  0.000E+00 ort =-0.761E-05 (trialstep = 0.117E+02)
 search vector abs. value=  0.874E-04
 bond charge predicted
       N       E                     dE             d eps       ncg     rms          rms(c)
DAV:   1    -0.159701654220E+03    0.93236E-03   -0.70705E-01  6000   0.172E+00    0.150E-01
RMM:   2    -0.159719738033E+03   -0.18084E-01   -0.26839E-02  6031   0.346E-01    0.132E+00
RMM:   3    -0.159704885822E+03    0.14852E-01   -0.42042E-03  6201   0.130E-01    0.305E-01
RMM:   4    -0.159703659823E+03    0.12260E-02   -0.13000E-03  6016   0.905E-02    0.141E-01
RMM:   5    -0.159703395829E+03    0.26399E-03   -0.16228E-04  5984   0.337E-02    0.722E-02
RMM:   6    -0.159703354959E+03    0.40870E-04   -0.27838E-05  3653   0.152E-02    0.601E-02
RMM:   7    -0.159703323966E+03    0.30993E-04   -0.44488E-05  4402   0.171E-02    0.532E-02
RMM:   8    -0.159703272527E+03    0.51438E-04   -0.24115E-04  6241   0.301E-02    0.271E-02
RMM:   9    -0.159703277336E+03   -0.48090E-05   -0.99728E-05  5799   0.203E-02
  30 F= -.15970328E+03 E0= -.15970069E+03  d E =-.691731E-03
 trial-energy change:   -0.000692  1 .order   -0.000614   -0.000846   -0.000381
 step:  15.7882(harm= 21.3220)  dis= 0.00295  next Energy=  -159.703347 (dE=-0.761E-03)
 bond charge predicted
       N       E                     dE             d eps       ncg     rms          rms(c)
DAV:   1    -0.159703158652E+03    0.11388E-03   -0.84871E-02  6240   0.599E-01    0.624E-02
RMM:   2    -0.159705017996E+03   -0.18593E-02   -0.33908E-03  6030   0.118E-01    0.421E-01
RMM:   3    -0.159703588746E+03    0.14292E-02   -0.52896E-04  6175   0.459E-02    0.133E-01
RMM:   4    -0.159703414970E+03    0.17378E-03   -0.21216E-04  5989   0.370E-02    0.660E-02
RMM:   5    -0.159703361275E+03    0.53694E-04   -0.31451E-05  3814   0.163E-02    0.275E-02
RMM:   6    -0.159703354616E+03    0.66592E-05   -0.86269E-06  3174   0.112E-02
  31 F= -.15970335E+03 E0= -.15970077E+03  d E =-.769012E-03
 curvature:  -8.62 expect dE=-0.493E-03 dE for cont linesearch -0.429E-05
 trial: gam= 0.86390 g(F)=  0.572E-04 g(S)=  0.000E+00 ort =-0.660E-05 (trialstep = 0.986E+01)
 search vector abs. value=  0.111E-03
 bond charge predicted
       N       E                     dE             d eps       ncg     rms          rms(c)
DAV:   1    -0.159702448765E+03    0.91251E-03   -0.62854E-01  6000   0.165E+00    0.107E-01
RMM:   2    -0.159709965270E+03   -0.75165E-02   -0.20401E-02  6036   0.312E-01    0.804E-01
RMM:   3    -0.159704657758E+03    0.53075E-02   -0.28913E-03  7705   0.102E-01    0.189E-01
RMM:   4    -0.159704194457E+03    0.46330E-03   -0.51111E-04  6016   0.625E-02    0.107E-01
RMM:   5    -0.159704067214E+03    0.12724E-03   -0.76659E-05  5805   0.253E-02    0.681E-02
RMM:   6    -0.159704041623E+03    0.25591E-04   -0.18276E-05  3269   0.114E-02    0.626E-02
RMM:   7    -0.159703985530E+03    0.56092E-04   -0.11824E-04  6028   0.228E-02    0.489E-02
RMM:   8    -0.159703957234E+03    0.28296E-04   -0.22969E-04  7063   0.284E-02    0.374E-02
RMM:   9    -0.159703956106E+03    0.11276E-05   -0.70624E-05  5537   0.177E-02
  32 F= -.15970396E+03 E0= -.15970136E+03  d E =-.601490E-03
 ZBRENT: can't locate minimum, use default step
 trial-energy change:   -0.000601  1 .order   -0.000466   -0.000508   -0.000424
 step:  39.4456(harm= 59.4911)  dis= 0.00465  next Energy=  -159.704887 (dE=-0.153E-02)
 bond charge predicted
       N       E                     dE             d eps       ncg     rms          rms(c)
DAV:   1    -0.159689977940E+03    0.13979E-01   -0.56491E+00  6000   0.495E+00    0.350E-01
RMM:   2    -0.159754477357E+03   -0.64499E-01   -0.19095E-01  6036   0.960E-01    0.231E+00
RMM:   3    -0.159710072557E+03    0.44405E-01   -0.27610E-02  7855   0.310E-01    0.597E-01
RMM:   4    -0.159705962884E+03    0.41097E-02   -0.49658E-03  6018   0.194E-01    0.325E-01
RMM:   5    -0.159704641412E+03    0.13215E-02   -0.82464E-04  6021   0.844E-02    0.185E-01
RMM:   6    -0.159704394728E+03    0.24668E-03   -0.27744E-04  6510   0.358E-02    0.163E-01
RMM:   7    -0.159703988469E+03    0.40626E-03   -0.84322E-04  6466   0.560E-02    0.133E-01
RMM:   8    -0.159703785110E+03    0.20336E-03   -0.11241E-03  7143   0.634E-02    0.935E-02
RMM:   9    -0.159703765460E+03    0.19651E-04   -0.61131E-04  7245   0.480E-02    0.598E-02
RMM:  10    -0.159703760468E+03    0.49914E-05   -0.10347E-04  5869   0.233E-02    0.468E-02
RMM:  11    -0.159703745079E+03    0.15390E-04   -0.11078E-05  3259   0.996E-03    0.399E-02
RMM:  12    -0.159703713202E+03    0.31877E-04   -0.25574E-05  3322   0.129E-02    0.237E-02
RMM:  13    -0.159703706453E+03    0.67487E-05   -0.17822E-05  3093   0.111E-02
  33 F= -.15970371E+03 E0= -.15970109E+03  d E =-.351837E-03
 curvature: -53.68 expect dE=-0.931E-02 dE for cont linesearch -0.395E-02
 ZBRENT: interpolating
 opt :  19.3910  next Energy=  -159.704161 (dE=-0.806E-03)
 bond charge predicted
       N       E                     dE             d eps       ncg     rms          rms(c)
DAV:   1    -0.159698153302E+03    0.55599E-02   -0.25954E+00  6000   0.336E+00    0.219E-01
RMM:   2    -0.159722763150E+03   -0.24610E-01   -0.82931E-02  6037   0.621E-01    0.140E+00
RMM:   3    -0.159706946136E+03    0.15817E-01   -0.11838E-02  8047   0.210E-01    0.375E-01
RMM:   4    -0.159705345782E+03    0.16004E-02   -0.19609E-03  6017   0.122E-01    0.222E-01
RMM:   5    -0.159704776605E+03    0.56918E-03   -0.36157E-04  6020   0.552E-02    0.130E-01
RMM:   6    -0.159704669990E+03    0.10662E-03   -0.10467E-04  5667   0.220E-02    0.116E-01
RMM:   7    -0.159704471292E+03    0.19870E-03   -0.39811E-04  6501   0.376E-02    0.101E-01
RMM:   8    -0.159704357466E+03    0.11383E-03   -0.50492E-04  6903   0.426E-02    0.786E-02
RMM:   9    -0.159704324840E+03    0.32626E-04   -0.38883E-04  7332   0.370E-02    0.485E-02
RMM:  10    -0.159704314972E+03    0.98672E-05   -0.60711E-05  5061   0.184E-02
  34 F= -.15970431E+03 E0= -.15970171E+03  d E =-.960356E-03
 curvature:  -2.78 expect dE=-0.126E-03 dE for cont linesearch -0.214E-05
 ZBRENT: interpolating
 opt :  17.7034  next Energy=  -159.704323 (dE=-0.968E-03)
 bond charge predicted
       N       E                     dE             d eps       ncg     rms          rms(c)
DAV:   1    -0.159704220931E+03    0.10391E-03   -0.18063E-02  6220   0.281E-01    0.458E-02
RMM:   2    -0.159704845375E+03   -0.62444E-03   -0.98488E-04  6021   0.639E-02    0.255E-01
RMM:   3    -0.159704291157E+03    0.55422E-03   -0.15439E-04  5936   0.256E-02    0.528E-02
RMM:   4    -0.159704277209E+03    0.13949E-04   -0.70927E-05  5401   0.226E-02    0.448E-02
RMM:   5    -0.159704251962E+03    0.25246E-04   -0.18769E-05  3276   0.146E-02    0.147E-02
RMM:   6    -0.159704250293E+03    0.16697E-05   -0.43371E-06  3120   0.683E-03
  35 F= -.15970425E+03 E0= -.15970165E+03  d E =-.895677E-03
 curvature: -10.13 expect dE=-0.521E-03 dE for cont linesearch -0.101E-04
 ZBRENT: interpolating
 opt :  18.6016  next Energy=  -159.704319 (dE=-0.964E-03)
 bond charge predicted
       N       E                     dE             d eps       ncg     rms          rms(c)
DAV:   1    -0.159704258376E+03   -0.64138E-05   -0.51710E-03  6280   0.150E-01    0.124E-02
RMM:   2    -0.159704368271E+03   -0.10989E-03   -0.19561E-04  5880   0.300E-02    0.102E-01
RMM:   3    -0.159704277781E+03    0.90490E-04   -0.21822E-05  3388   0.112E-02    0.174E-02
RMM:   4    -0.159704273629E+03    0.41526E-05   -0.11098E-05  3189   0.120E-02
  36 F= -.15970427E+03 E0= -.15970168E+03  d E =-.919012E-03
 curvature:  -3.66 expect dE=-0.167E-03 dE for cont linesearch -0.199E-05
 trial: gam= 0.55473 g(F)=  0.455E-04 g(S)=  0.000E+00 ort =-0.778E-05 (trialstep = 0.116E+02)
 search vector abs. value=  0.711E-04
 bond charge predicted
       N       E                     dE             d eps       ncg     rms          rms(c)
DAV:   1    -0.159703210924E+03    0.10669E-02   -0.55878E-01  6040   0.155E+00    0.107E-01
RMM:   2    -0.159705911159E+03   -0.27002E-02   -0.17001E-02  6031   0.286E-01    0.383E-01
RMM:   3    -0.159705703608E+03    0.20755E-03   -0.25537E-03  8249   0.953E-02    0.329E-01
RMM:   4    -0.159704827724E+03    0.87588E-03   -0.53277E-04  6013   0.626E-02    0.123E-01
RMM:   5    -0.159704652315E+03    0.17541E-03   -0.87938E-05  5857   0.267E-02    0.642E-02
RMM:   6    -0.159704625473E+03    0.26841E-04   -0.20096E-05  3307   0.126E-02    0.580E-02
RMM:   7    -0.159704585415E+03    0.40058E-04   -0.74182E-05  5380   0.185E-02    0.464E-02
RMM:   8    -0.159704553798E+03    0.31617E-04   -0.21513E-04  6704   0.276E-02    0.330E-02
RMM:   9    -0.159704554878E+03   -0.10793E-05   -0.69849E-05  5521   0.176E-02
  37 F= -.15970455E+03 E0= -.15970196E+03  d E =-.281249E-03
 trial-energy change:   -0.000281  1 .order   -0.000153   -0.000479    0.000172
 step:  10.0964(harm=  8.5449)  dis= 0.00091  next Energy=  -159.704566 (dE=-0.292E-03)
 bond charge predicted
       N       E                     dE             d eps       ncg     rms          rms(c)
DAV:   1    -0.159704555231E+03   -0.14326E-05   -0.97711E-03  6300   0.204E-01    0.106E-02
RMM:   2    -0.159704600081E+03   -0.44850E-04   -0.22236E-04  5968   0.365E-02    0.494E-02
RMM:   3    -0.159704591840E+03    0.82412E-05   -0.25554E-05  3378   0.121E-02
  38 F= -.15970459E+03 E0= -.15970201E+03  d E =-.318211E-03
 curvature:  -5.48 expect dE=-0.663E-04 dE for cont linesearch -0.113E-05
 trial: gam= 0.15150 g(F)=  0.121E-04 g(S)=  0.000E+00 ort = 0.382E-05 (trialstep = 0.113E+02)
 search vector abs. value=  0.149E-04
 reached required accuracy - stopping structural energy minimisation
 writing wavefunctions
