 running on   20 total cores
 distrk:  each k-point on   20 cores,    1 groups
 distr:  one band on    1 cores,   20 groups
 using from now: INCAR     
 vasp.5.4.1 24Jun15 (build Oct 26 2018 17:15:27) complex                        
  
 POSCAR found type information on POSCAR  Pt O 
 POSCAR found :  2 types and      17 ions
 scaLAPACK will be used

 ----------------------------------------------------------------------------- 
|                                                                             |
|           W    W    AA    RRRRR   N    N  II  N    N   GGGG   !!!           |
|           W    W   A  A   R    R  NN   N  II  NN   N  G    G  !!!           |
|           W    W  A    A  R    R  N N  N  II  N N  N  G       !!!           |
|           W WW W  AAAAAA  RRRRR   N  N N  II  N  N N  G  GGG   !            |
|           WW  WW  A    A  R   R   N   NN  II  N   NN  G    G                |
|           W    W  A    A  R    R  N    N  II  N    N   GGGG   !!!           |
|                                                                             |
|      For optimal performance we recommend to set                            |
|        NCORE= 4 - approx SQRT( number of cores)                             |
|      NCORE specifies how many cores store one orbital (NPAR=cpu/NCORE).     |
|      This setting can  greatly improve the performance of VASP for DFT.     |
|      The default, NPAR=number of cores might be grossly inefficient         |
|      on modern multi-core architectures or massively parallel machines.     |
|      Do your own testing !!!!                                               |
|      Unfortunately you need to use the default for GW and RPA calculations. |
|      (for HF NCORE is supported but not extensively tested yet)             |
|                                                                             |
 ----------------------------------------------------------------------------- 

 LDA part: xc-table for Ceperly-Alder, standard interpolation
 found WAVECAR, reading the header
 POSCAR, INCAR and KPOINTS ok, starting setup
 WARNING: small aliasing (wrap around) errors must be expected
 FFT: planning ...
 reading WAVECAR
 the WAVECAR file was read successfully
 initial charge from wavefunction
 entering main loop
       N       E                     dE             d eps       ncg     rms          rms(c)
DAV:   1    -0.100881038696E+04   -0.10088E+04   -0.15170E+04  8160   0.269E+02    0.994E+01
RMM:   2    -0.584409443728E+03    0.42440E+03   -0.44274E+03 11472   0.203E+02    0.571E+01
RMM:   3    -0.208695550829E+03    0.37571E+03   -0.69577E+02 10469   0.111E+02    0.338E+01
RMM:   4    -0.833857816028E+02    0.12531E+03   -0.57458E+02 10259   0.660E+01    0.425E+01
RMM:   5    -0.552089838254E+02    0.28177E+02   -0.16633E+02 11363   0.403E+01    0.342E+01
RMM:   6    -0.129167875998E+03   -0.73959E+02   -0.49801E+02 11662   0.615E+01    0.284E+01
RMM:   7    -0.375368318218E+02    0.91631E+02   -0.84963E+01 12224   0.337E+01    0.199E+01
RMM:   8    -0.296115819221E+02    0.79252E+01   -0.14242E+02 12086   0.275E+01    0.960E+00
RMM:   9    -0.368942023539E+02   -0.72826E+01   -0.83663E+01 12362   0.191E+01    0.692E+00
RMM:  10    -0.493750499576E+02   -0.12481E+02   -0.81177E+01 12351   0.194E+01    0.186E+01
RMM:  11    -0.577686834231E+02   -0.83936E+01   -0.92670E+01 12327   0.178E+01    0.110E+01
RMM:  12    -0.860517437274E+02   -0.28283E+02   -0.13057E+02 11705   0.212E+01    0.238E+01
RMM:  13    -0.848954814503E+02    0.11563E+01   -0.90714E+01 11686   0.139E+01    0.162E+01
RMM:  14    -0.877154428687E+02   -0.28200E+01   -0.79733E+01 11290   0.120E+01    0.696E+00
RMM:  15    -0.929383749279E+02   -0.52229E+01   -0.51332E+01 10798   0.933E+00    0.634E+00
RMM:  16    -0.954298005013E+02   -0.24914E+01   -0.29046E+01  9923   0.613E+00    0.487E+00
RMM:  17    -0.963410191539E+02   -0.91122E+00   -0.97358E+00  9076   0.348E+00    0.617E+00
RMM:  18    -0.970563777159E+02   -0.71536E+00   -0.29410E+00  8334   0.211E+00    0.872E+00
RMM:  19    -0.966643412164E+02    0.39204E+00   -0.15199E+00  7372   0.271E+00    0.614E+00
RMM:  20    -0.963288079418E+02    0.33553E+00   -0.15525E+00  7443   0.256E+00    0.371E+00
RMM:  21    -0.963507268989E+02   -0.21919E-01   -0.96356E-01  7855   0.149E+00    0.369E+00
RMM:  22    -0.962990094917E+02    0.51717E-01   -0.43625E-01  7012   0.118E+00    0.238E+00
RMM:  23    -0.963171986988E+02   -0.18189E-01   -0.68706E-02  7411   0.722E-01    0.269E+00
RMM:  24    -0.962946460108E+02    0.22553E-01   -0.27170E-02  7018   0.613E-01    0.252E+00
RMM:  25    -0.962192866557E+02    0.75359E-01   -0.24230E-02  7526   0.499E-01    0.109E+00
RMM:  26    -0.962041459857E+02    0.15141E-01   -0.24572E-02  7424   0.502E-01    0.644E-01
RMM:  27    -0.961975914176E+02    0.65546E-02   -0.59560E-03  7488   0.244E-01    0.296E-01
RMM:  28    -0.962033270669E+02   -0.57356E-02   -0.48720E-03  7551   0.186E-01    0.818E-01
RMM:  29    -0.962004226085E+02    0.29045E-02   -0.46993E-03  7360   0.189E-01    0.706E-01
RMM:  30    -0.962025191787E+02   -0.20966E-02   -0.28176E-03  6886   0.176E-01    0.866E-01
RMM:  31    -0.961945192748E+02    0.79999E-02   -0.31616E-03  7233   0.173E-01    0.403E-01
RMM:  32    -0.961947894072E+02   -0.27013E-03   -0.62794E-04  6945   0.954E-02    0.456E-01
RMM:  33    -0.961935074866E+02    0.12819E-02   -0.15759E-03  7016   0.116E-01    0.361E-01
RMM:  34    -0.961917986962E+02    0.17088E-02   -0.54490E-04  6808   0.922E-02    0.156E-01
RMM:  35    -0.961923931734E+02   -0.59448E-03   -0.66689E-04  6834   0.599E-02    0.265E-01
RMM:  36    -0.961922030715E+02    0.19010E-03   -0.53866E-04  6921   0.672E-02    0.201E-01
RMM:  37    -0.962152315045E+02   -0.23028E-01   -0.36024E-03  7038   0.120E-01    0.128E+00
RMM:  38    -0.962022353469E+02    0.12996E-01   -0.46477E-04  6797   0.988E-02    0.809E-01
RMM:  39    -0.961973372314E+02    0.48981E-02   -0.24710E-04  6894   0.352E-02    0.561E-01
RMM:  40    -0.961930368011E+02    0.43004E-02   -0.49298E-04  7174   0.660E-02    0.208E-01
RMM:  41    -0.961922560388E+02    0.78076E-03   -0.43218E-04  7527   0.525E-02    0.377E-02
RMM:  42    -0.961942112922E+02   -0.19553E-02   -0.52206E-04  7213   0.541E-02    0.366E-01
RMM:  43    -0.961930539110E+02    0.11574E-02   -0.10834E-04  6072   0.379E-02    0.123E-01
RMM:  44    -0.961931779839E+02   -0.12407E-03   -0.45813E-05  4919   0.210E-02    0.728E-02
RMM:  45    -0.961933383565E+02   -0.16037E-03   -0.26090E-05  4174   0.192E-02    0.534E-02
RMM:  46    -0.961935463013E+02   -0.20794E-03   -0.25511E-05  4276   0.155E-02    0.344E-02
RMM:  47    -0.961937569930E+02   -0.21069E-03   -0.26126E-05  4324   0.157E-02    0.794E-02
RMM:  48    -0.961937678293E+02   -0.10836E-04   -0.96072E-06  3843   0.898E-03    0.707E-02
RMM:  49    -0.961937352327E+02    0.32597E-04   -0.89405E-06  3786   0.873E-03    0.349E-02
RMM:  50    -0.961937300794E+02    0.51533E-05   -0.73978E-06  3773   0.102E-02
   1 F= -.96193730E+02 E0= -.96094740E+02  d E =-.961937E+02
 curvature:   0.00 expect dE= 0.000E+00 dE for cont linesearch  0.000E+00
 trial: gam= 0.00000 g(F)=  0.179E+00 g(S)=  0.000E+00 ort = 0.000E+00 (trialstep = 0.100E+01)
 search vector abs. value=  0.179E+00
 bond charge predicted
       N       E                     dE             d eps       ncg     rms          rms(c)
DAV:   1    -0.963550161867E+02   -0.16128E+00   -0.94954E+00  7340   0.978E+00    0.456E-01
RMM:   2    -0.964146409225E+02   -0.59625E-01   -0.18455E-01  6875   0.141E+00    0.185E+00
RMM:   3    -0.963749237463E+02    0.39717E-01   -0.15026E-02  7765   0.460E-01    0.500E-01
RMM:   4    -0.963747979975E+02    0.12575E-03   -0.60062E-03  6950   0.291E-01    0.503E-01
RMM:   5    -0.963723271048E+02    0.24709E-02   -0.17139E-03  6909   0.137E-01    0.419E-01
RMM:   6    -0.963716014767E+02    0.72563E-03   -0.89569E-04  7204   0.917E-02    0.269E-01
RMM:   7    -0.963710646659E+02    0.53681E-03   -0.12833E-03  6872   0.125E-01    0.166E-01
RMM:   8    -0.963707520323E+02    0.31263E-03   -0.54574E-04  7068   0.762E-02    0.117E-01
RMM:   9    -0.963706311337E+02    0.12090E-03   -0.80527E-05  6299   0.372E-02    0.602E-02
RMM:  10    -0.963706084833E+02    0.22650E-04   -0.29596E-05  4109   0.226E-02    0.243E-02
RMM:  11    -0.963706305711E+02   -0.22088E-04   -0.17666E-05  3694   0.205E-02    0.330E-02
RMM:  12    -0.963706411339E+02   -0.10563E-04   -0.95644E-06  3638   0.169E-02    0.269E-02
RMM:  13    -0.963706469939E+02   -0.58600E-05   -0.37210E-06  3581   0.904E-03
   2 F= -.96370647E+02 E0= -.96272566E+02  d E =-.176917E+00
 ZBRENT: can't locate minimum, use default step
 trial-energy change:   -0.176917  1 .order   -0.175217   -0.179226   -0.171209
 step:   4.0000(harm= 22.3571)  dis= 0.06138  next Energy=   -98.197213 (dE=-0.200E+01)
 bond charge predicted
       N       E                     dE             d eps       ncg     rms          rms(c)
DAV:   1    -0.966707996474E+02   -0.30016E+00   -0.85828E+01  7000   0.296E+01    0.146E+00
RMM:   2    -0.976407699110E+02   -0.96997E+00   -0.20944E+00  6868   0.560E+00    0.755E+00
RMM:   3    -0.969056525928E+02    0.73512E+00   -0.22298E-01  7962   0.154E+00    0.211E+00
RMM:   4    -0.968528101954E+02    0.52842E-01   -0.58552E-02  6917   0.922E-01    0.112E+00
RMM:   5    -0.968466066379E+02    0.62036E-02   -0.18251E-02  6912   0.469E-01    0.128E+00
RMM:   6    -0.968368202348E+02    0.97864E-02   -0.10291E-02  6975   0.336E-01    0.827E-01
RMM:   7    -0.968364712879E+02    0.34895E-03   -0.20293E-02  7091   0.469E-01    0.702E-01
RMM:   8    -0.968307604015E+02    0.57109E-02   -0.54554E-03  6837   0.282E-01    0.415E-01
RMM:   9    -0.968287954789E+02    0.19649E-02   -0.61048E-04  7451   0.828E-02    0.188E-01
RMM:  10    -0.968283624525E+02    0.43303E-03   -0.32467E-04  6850   0.653E-02    0.883E-02
RMM:  11    -0.968284105498E+02   -0.48097E-04   -0.39156E-04  6949   0.714E-02    0.141E-01
RMM:  12    -0.968283113327E+02    0.99217E-04   -0.91619E-05  6580   0.363E-02    0.118E-01
RMM:  13    -0.968281886987E+02    0.12263E-03   -0.21371E-05  3970   0.162E-02    0.648E-02
RMM:  14    -0.968281918152E+02   -0.31165E-05   -0.14098E-05  3777   0.199E-02
   3 F= -.96828192E+02 E0= -.96732897E+02  d E =-.634462E+00
 curvature:  -2.92 expect dE=-0.297E+00 dE for cont linesearch -0.285E+00
 ZBRENT: increasing intervall
 opt :  10.0000  next Energy=   -97.388467 (dE=-0.119E+01)
 bond charge predicted
       N       E                     dE             d eps       ncg     rms          rms(c)
DAV:   1    -0.962480223049E+02    0.58017E+00   -0.34561E+02  6940   0.601E+01    0.338E+00
RMM:   2    -0.103695100515E+03   -0.74471E+01   -0.13607E+01  6931   0.138E+01    0.166E+01
RMM:   3    -0.978392862409E+02    0.58558E+01   -0.16154E+00  7668   0.395E+00    0.707E+00
RMM:   4    -0.971308123213E+02    0.70847E+00   -0.37684E-01  6887   0.235E+00    0.224E+00
RMM:   5    -0.971422576664E+02   -0.11445E-01   -0.96595E-02  7277   0.108E+00    0.262E+00
RMM:   6    -0.970855288287E+02    0.56729E-01   -0.68513E-02  6918   0.973E-01    0.149E+00
RMM:   7    -0.970891570993E+02   -0.36283E-02   -0.10699E-01  6890   0.120E+00    0.137E+00
RMM:   8    -0.970697536187E+02    0.19403E-01   -0.37096E-02  6880   0.730E-01    0.104E+00
RMM:   9    -0.970581247669E+02    0.11629E-01   -0.36837E-03  7699   0.205E-01    0.480E-01
RMM:  10    -0.970584611479E+02   -0.33638E-03   -0.44758E-03  6931   0.246E-01    0.549E-01
RMM:  11    -0.970546575515E+02    0.38036E-02   -0.10704E-03  6882   0.127E-01    0.233E-01
RMM:  12    -0.970537884620E+02    0.86909E-03   -0.41273E-04  7238   0.685E-02    0.140E-01
RMM:  13    -0.970532807728E+02    0.50769E-03   -0.19887E-04  6943   0.480E-02    0.936E-02
RMM:  14    -0.970530248797E+02    0.25589E-03   -0.95270E-05  6246   0.309E-02    0.925E-02
RMM:  15    -0.970527998028E+02    0.22508E-03   -0.63582E-05  5496   0.266E-02    0.894E-02
RMM:  16    -0.970527333397E+02    0.66463E-04   -0.24276E-05  4090   0.193E-02    0.881E-02
RMM:  17    -0.970526965509E+02    0.36789E-04   -0.24079E-05  4110   0.191E-02    0.551E-02
RMM:  18    -0.970528413154E+02   -0.14476E-03   -0.30069E-05  4469   0.190E-02    0.295E-02
RMM:  19    -0.970533326201E+02   -0.49130E-03   -0.10091E-04  5565   0.225E-02    0.209E-02
RMM:  20    -0.970534930070E+02   -0.16039E-03   -0.41785E-05  4676   0.144E-02    0.115E-02
RMM:  21    -0.970535793745E+02   -0.86367E-04   -0.25951E-05  4295   0.127E-02    0.787E-03
RMM:  22    -0.970535985848E+02   -0.19210E-04   -0.54129E-06  3787   0.934E-03    0.746E-03
RMM:  23    -0.970536044686E+02   -0.58838E-05   -0.21322E-06  3325   0.554E-03
   4 F= -.97053604E+02 E0= -.96964881E+02  d E =-.859874E+00
 curvature:  -5.74 expect dE=-0.789E+00 dE for cont linesearch -0.324E+00
 ZBRENT: bracketing found
 ZBRENT: interpolating
 opt :   7.4090  next Energy=   -97.183872 (dE=-0.990E+00)
 bond charge predicted
       N       E                     dE             d eps       ncg     rms          rms(c)
DAV:   1    -0.969973266325E+02    0.56272E-01   -0.64265E+01  6800   0.252E+01    0.135E+00
RMM:   2    -0.983276763830E+02   -0.13303E+01   -0.16248E+00  6977   0.472E+00    0.905E+00
RMM:   3    -0.971523849824E+02    0.11753E+01   -0.19785E-01  7316   0.167E+00    0.132E+00
RMM:   4    -0.971743367680E+02   -0.21952E-01   -0.68006E-02  7010   0.100E+00    0.178E+00
RMM:   5    -0.971299306524E+02    0.44406E-01   -0.17989E-02  6920   0.459E-01    0.727E-01
RMM:   6    -0.971264551238E+02    0.34755E-02   -0.10890E-02  6873   0.383E-01    0.462E-01
RMM:   7    -0.971276544084E+02   -0.11993E-02   -0.11513E-02  6939   0.394E-01    0.486E-01
RMM:   8    -0.971238217151E+02    0.38327E-02   -0.30769E-03  6839   0.201E-01    0.965E-02
RMM:   9    -0.971240538165E+02   -0.23210E-03   -0.65698E-04  7082   0.946E-02    0.128E-01
RMM:  10    -0.971239210757E+02    0.13274E-03   -0.20390E-04  6851   0.551E-02    0.677E-02
RMM:  11    -0.971239850900E+02   -0.64014E-04   -0.78483E-05  6322   0.315E-02    0.529E-02
RMM:  12    -0.971240498110E+02   -0.64721E-04   -0.44382E-05  4937   0.242E-02    0.355E-02
RMM:  13    -0.971241022711E+02   -0.52460E-04   -0.17415E-05  3926   0.176E-02    0.362E-02
RMM:  14    -0.971241542268E+02   -0.51956E-04   -0.15427E-05  3918   0.166E-02    0.347E-02
RMM:  15    -0.971241850704E+02   -0.30844E-04   -0.92687E-06  3780   0.112E-02    0.333E-02
RMM:  16    -0.971242313755E+02   -0.46305E-04   -0.23930E-05  4258   0.135E-02    0.228E-02
RMM:  17    -0.971242484457E+02   -0.17070E-04   -0.10261E-05  3829   0.910E-03    0.158E-02
RMM:  18    -0.971242625001E+02   -0.14054E-04   -0.13267E-05  3950   0.974E-03    0.797E-03
RMM:  19    -0.971242663670E+02   -0.38668E-05   -0.56751E-06  3591   0.719E-03
   5 F= -.97124266E+02 E0= -.97032669E+02  d E =-.930536E+00
 curvature:  -2.31 expect dE=-0.686E-01 dE for cont linesearch -0.130E-01
 ZBRENT: interpolating
 opt :   8.0310  next Energy=   -97.134148 (dE=-0.940E+00)
 bond charge predicted
       N       E                     dE             d eps       ncg     rms          rms(c)
DAV:   1    -0.971294789113E+02   -0.52164E-02   -0.37293E+00  6880   0.631E+00    0.317E-01
RMM:   2    -0.972073432355E+02   -0.77864E-01   -0.94386E-02  6961   0.106E+00    0.221E+00
RMM:   3    -0.971391679557E+02    0.68175E-01   -0.10173E-02  7244   0.365E-01    0.451E-01
RMM:   4    -0.971374380843E+02    0.17299E-02   -0.31939E-03  7002   0.206E-01    0.281E-01
RMM:   5    -0.971368275191E+02    0.61057E-03   -0.11086E-03  6851   0.125E-01    0.233E-01
RMM:   6    -0.971364308417E+02    0.39668E-03   -0.66603E-04  6840   0.942E-02    0.170E-01
RMM:   7    -0.971361617061E+02    0.26914E-03   -0.73089E-04  7021   0.920E-02    0.918E-02
RMM:   8    -0.971360036292E+02    0.15808E-03   -0.20899E-04  6827   0.551E-02    0.447E-02
RMM:   9    -0.971359886925E+02    0.14937E-04   -0.27796E-05  4285   0.190E-02    0.270E-02
RMM:  10    -0.971360081940E+02   -0.19501E-04   -0.21280E-05  3820   0.233E-02    0.287E-02
RMM:  11    -0.971360053691E+02    0.28248E-05   -0.76680E-06  3684   0.151E-02
   6 F= -.97136005E+02 E0= -.97045128E+02  d E =-.942275E+00
 curvature:  -1.75 expect dE=-0.567E-01 dE for cont linesearch -0.400E-03
 trial: gam= 0.14465 g(F)=  0.323E-01 g(S)=  0.000E+00 ort = 0.639E-02 (trialstep = 0.241E+01)
 search vector abs. value=  0.379E-01
 bond charge predicted
       N       E                     dE             d eps       ncg     rms          rms(c)
DAV:   1    -0.971861863697E+02   -0.50178E-01   -0.12215E+01  6800   0.104E+01    0.480E-01
RMM:   2    -0.972110844397E+02   -0.24898E-01   -0.21811E-01  6853   0.192E+00    0.675E-01
RMM:   3    -0.972439521666E+02   -0.32868E-01   -0.32079E-02  9220   0.562E-01    0.162E+00
RMM:   4    -0.972079571551E+02    0.35995E-01   -0.81265E-03  7263   0.263E-01    0.441E-01
RMM:   5    -0.972058379392E+02    0.21192E-02   -0.20888E-03  6885   0.175E-01    0.233E-01
RMM:   6    -0.972057948934E+02    0.43046E-04   -0.13310E-03  7237   0.116E-01    0.244E-01
RMM:   7    -0.972057216405E+02    0.73253E-04   -0.25141E-03  6933   0.165E-01    0.225E-01
RMM:   8    -0.972050095931E+02    0.71205E-03   -0.10267E-03  6945   0.110E-01    0.748E-02
RMM:   9    -0.972049306819E+02    0.78911E-04   -0.15029E-04  6878   0.441E-02    0.413E-02
RMM:  10    -0.972049040054E+02    0.26676E-04   -0.51460E-05  5453   0.251E-02    0.209E-02
RMM:  11    -0.972049041906E+02   -0.18524E-06   -0.21099E-05  3789   0.203E-02
   7 F= -.97204904E+02 E0= -.97115104E+02  d E =-.688988E-01
 trial-energy change:   -0.068899  1 .order   -0.068680   -0.079988   -0.057371
 step:   7.5659(harm=  8.5096)  dis= 0.06818  next Energy=   -97.268577 (dE=-0.133E+00)
 bond charge predicted
       N       E                     dE             d eps       ncg     rms          rms(c)
DAV:   1    -0.971671835855E+02    0.37720E-01   -0.56132E+01  6800   0.223E+01    0.114E+00
RMM:   2    -0.973838145751E+02   -0.21663E+00   -0.12442E+00  6848   0.517E+00    0.284E+00
RMM:   3    -0.974081676641E+02   -0.24353E-01   -0.21255E-01  9038   0.132E+00    0.309E+00
RMM:   4    -0.972841114061E+02    0.12406E+00   -0.48692E-02  7165   0.765E-01    0.876E-01
RMM:   5    -0.972764666908E+02    0.76447E-02   -0.10538E-02  6992   0.387E-01    0.551E-01
RMM:   6    -0.972753320894E+02    0.11346E-02   -0.54804E-03  7215   0.238E-01    0.539E-01
RMM:   7    -0.972743736388E+02    0.95845E-03   -0.13916E-02  6888   0.386E-01    0.453E-01
RMM:   8    -0.972721516946E+02    0.22219E-02   -0.62427E-03  6890   0.286E-01    0.243E-01
RMM:   9    -0.972714665952E+02    0.68510E-03   -0.11194E-03  6873   0.124E-01    0.131E-01
RMM:  10    -0.972711503004E+02    0.31629E-03   -0.33381E-04  6824   0.619E-02    0.410E-02
RMM:  11    -0.972711385987E+02    0.11702E-04   -0.16868E-04  6789   0.478E-02    0.402E-02
RMM:  12    -0.972711196146E+02    0.18984E-04   -0.89195E-05  6506   0.315E-02    0.135E-02
RMM:  13    -0.972711232387E+02   -0.36241E-05   -0.12066E-05  3742   0.154E-02
   8 F= -.97271123E+02 E0= -.97182849E+02  d E =-.135118E+00
 curvature:  -4.74 expect dE=-0.112E-01 dE for cont linesearch -0.112E-03
 ZBRENT: extrapolating
 opt :   7.7796  next Energy=   -97.271225 (dE=-0.135E+00)
 bond charge predicted
       N       E                     dE             d eps       ncg     rms          rms(c)
DAV:   1    -0.972711373865E+02   -0.17772E-04   -0.96840E-02  7460   0.922E-01    0.440E-02
RMM:   2    -0.972713199626E+02   -0.18258E-03   -0.16668E-03  6850   0.154E-01    0.558E-02
RMM:   3    -0.972714423107E+02   -0.12235E-03   -0.18819E-04  7332   0.534E-02    0.106E-01
RMM:   4    -0.972713018810E+02    0.14043E-03   -0.33412E-05  4386   0.210E-02    0.359E-02
RMM:   5    -0.972712899219E+02    0.11959E-04   -0.17092E-05  3716   0.220E-02    0.211E-02
RMM:   6    -0.972712885745E+02    0.13474E-05   -0.93625E-06  3565   0.155E-02
   9 F= -.97271289E+02 E0= -.97183055E+02  d E =-.135283E+00
 curvature:  -4.27 expect dE=-0.105E-01 dE for cont linesearch -0.261E-05
 trial: gam= 0.08245 g(F)=  0.247E-02 g(S)=  0.000E+00 ort = 0.152E-03 (trialstep = 0.348E+01)
 search vector abs. value=  0.275E-02
 bond charge predicted
       N       E                     dE             d eps       ncg     rms          rms(c)
DAV:   1    -0.972763009605E+02   -0.50110E-02   -0.18411E+00  6800   0.414E+00    0.181E-01
RMM:   2    -0.972799429944E+02   -0.36420E-02   -0.32115E-02  6849   0.707E-01    0.236E-01
RMM:   3    -0.972846592444E+02   -0.47163E-02   -0.42208E-03  8868   0.231E-01    0.617E-01
RMM:   4    -0.972796822938E+02    0.49770E-02   -0.98349E-04  7338   0.101E-01    0.161E-01
RMM:   5    -0.972793614152E+02    0.32088E-03   -0.27496E-04  6992   0.581E-02    0.887E-02
RMM:   6    -0.972793199331E+02    0.41482E-04   -0.11876E-04  6905   0.385E-02    0.800E-02
RMM:   7    -0.972793091654E+02    0.10768E-04   -0.33599E-04  7031   0.573E-02    0.712E-02
RMM:   8    -0.972792261457E+02    0.83020E-04   -0.14969E-04  6861   0.384E-02    0.177E-02
RMM:   9    -0.972792219063E+02    0.42394E-05   -0.15347E-05  3701   0.188E-02
  10 F= -.97279222E+02 E0= -.97191220E+02  d E =-.793333E-02
 ZBRENT: can't locate minimum, use default step
 trial-energy change:   -0.007933  1 .order   -0.008210   -0.008635   -0.007785
 step:  13.9236(harm= 35.3680)  dis= 0.02482  next Energy=   -97.315157 (dE=-0.439E-01)
 bond charge predicted
       N       E                     dE             d eps       ncg     rms          rms(c)
DAV:   1    -0.972677985908E+02    0.11428E-01   -0.16568E+01  6800   0.124E+01    0.552E-01
RMM:   2    -0.973002674944E+02   -0.32469E-01   -0.30780E-01  6851   0.240E+00    0.612E-01
RMM:   3    -0.973172930127E+02   -0.17026E-01   -0.42475E-02  9359   0.642E-01    0.115E+00
RMM:   4    -0.973067775136E+02    0.10515E-01   -0.66702E-03  7576   0.231E-01    0.866E-01
RMM:   5    -0.972976419520E+02    0.91356E-02   -0.28345E-03  7070   0.191E-01    0.277E-01
RMM:   6    -0.972970350531E+02    0.60690E-03   -0.10382E-03  6961   0.112E-01    0.238E-01
RMM:   7    -0.972967809995E+02    0.25405E-03   -0.34223E-03  6967   0.189E-01    0.205E-01
RMM:   8    -0.972961578127E+02    0.62319E-03   -0.16367E-03  7377   0.130E-01    0.694E-02
RMM:   9    -0.972961026558E+02    0.55157E-04   -0.19491E-04  6963   0.562E-02    0.520E-02
RMM:  10    -0.972960566739E+02    0.45982E-04   -0.41469E-05  4769   0.257E-02    0.251E-02
RMM:  11    -0.972960469337E+02    0.97402E-05   -0.30769E-05  4054   0.239E-02
  11 F= -.97296047E+02 E0= -.97208713E+02  d E =-.247584E-01
 curvature: -10.74 expect dE=-0.259E-01 dE for cont linesearch -0.467E-02
 ZBRENT: increasing intervall
 opt :  34.8089  next Energy=   -97.295039 (dE=-0.238E-01)
 bond charge predicted
       N       E                     dE             d eps       ncg     rms          rms(c)
DAV:   1    -0.971614481009E+02    0.13461E+00   -0.66266E+01  6800   0.250E+01    0.115E+00
RMM:   2    -0.973500356431E+02   -0.18859E+00   -0.14565E+00  6843   0.576E+00    0.213E+00
RMM:   3    -0.974771554048E+02   -0.12712E+00   -0.23287E-01  9008   0.140E+00    0.346E+00
RMM:   4    -0.973180280139E+02    0.15913E+00   -0.50213E-02  7288   0.762E-01    0.121E+00
RMM:   5    -0.973010116390E+02    0.17016E-01   -0.11052E-02  6999   0.382E-01    0.589E-01
RMM:   6    -0.972982312725E+02    0.27804E-02   -0.42219E-03  7004   0.226E-01    0.494E-01
RMM:   7    -0.972955566211E+02    0.26747E-02   -0.16110E-02  6951   0.415E-01    0.345E-01
RMM:   8    -0.972943658316E+02    0.11908E-02   -0.64860E-03  7285   0.281E-01    0.190E-01
RMM:   9    -0.972939036168E+02    0.46221E-03   -0.87605E-04  7428   0.108E-01    0.102E-01
RMM:  10    -0.972937408207E+02    0.16280E-03   -0.18338E-04  6836   0.508E-02    0.601E-02
RMM:  11    -0.972936576706E+02    0.83150E-04   -0.29299E-04  6837   0.557E-02    0.376E-02
RMM:  12    -0.972936469685E+02    0.10702E-04   -0.12787E-04  6901   0.413E-02    0.130E-02
RMM:  13    -0.972936571069E+02   -0.10138E-04   -0.10628E-05  3738   0.130E-02    0.126E-02
RMM:  14    -0.972936620064E+02   -0.48995E-05   -0.52616E-06  3677   0.142E-02
  12 F= -.97293662E+02 E0= -.97207389E+02  d E =-.223734E-01
 curvature:   2.32 expect dE= 0.293E-01 dE for cont linesearch  0.161E-02
 ZBRENT: bracketing found
 ZBRENT: interpolating
 opt :  23.1555  next Energy=   -97.301097 (dE=-0.298E-01)
 bond charge predicted
       N       E                     dE             d eps       ncg     rms          rms(c)
DAV:   1    -0.972648065347E+02    0.28851E-01   -0.20590E+01  6800   0.139E+01    0.599E-01
RMM:   2    -0.973042031845E+02   -0.39397E-01   -0.39102E-01  6844   0.274E+00    0.534E-01
RMM:   3    -0.973615202348E+02   -0.57317E-01   -0.58450E-02  9426   0.786E-01    0.205E+00
RMM:   4    -0.973085799778E+02    0.52940E-01   -0.10911E-02  7367   0.304E-01    0.686E-01
RMM:   5    -0.973030682917E+02    0.55117E-02   -0.30758E-03  6985   0.221E-01    0.296E-01
RMM:   6    -0.973023445903E+02    0.72370E-03   -0.12751E-03  6952   0.128E-01    0.238E-01
RMM:   7    -0.973017435293E+02    0.60106E-03   -0.42327E-03  6966   0.203E-01    0.182E-01
RMM:   8    -0.973014764347E+02    0.26709E-03   -0.19104E-03  7407   0.150E-01    0.113E-01
RMM:   9    -0.973013085467E+02    0.16789E-03   -0.25038E-04  6885   0.602E-02    0.649E-02
RMM:  10    -0.973012462070E+02    0.62340E-04   -0.52278E-05  5345   0.256E-02    0.371E-02
RMM:  11    -0.973012204701E+02    0.25737E-04   -0.73287E-05  6521   0.313E-02    0.225E-02
RMM:  12    -0.973012110219E+02    0.94482E-05   -0.53979E-05  5786   0.237E-02
  13 F= -.97301211E+02 E0= -.97214382E+02  d E =-.299224E-01
 curvature:  -7.28 expect dE=-0.371E-01 dE for cont linesearch -0.338E-04
 trial: gam= 2.05845 g(F)=  0.509E-02 g(S)=  0.000E+00 ort = 0.113E-03 (trialstep = 0.119E+01)
 search vector abs. value=  0.172E-01
 bond charge predicted
       N       E                     dE             d eps       ncg     rms          rms(c)
DAV:   1    -0.973048574629E+02   -0.36370E-02   -0.13178E+00  6800   0.360E+00    0.174E-01
RMM:   2    -0.973084555052E+02   -0.35980E-02   -0.24588E-02  6843   0.581E-01    0.346E-01
RMM:   3    -0.973106888081E+02   -0.22333E-02   -0.30547E-03  8399   0.208E-01    0.498E-01
RMM:   4    -0.973076142442E+02    0.30746E-02   -0.10606E-03  7270   0.106E-01    0.178E-01
RMM:   5    -0.973071970177E+02    0.41723E-03   -0.31028E-04  6924   0.609E-02    0.869E-02
RMM:   6    -0.973070979126E+02    0.99105E-04   -0.11980E-04  6824   0.374E-02    0.518E-02
RMM:   7    -0.973071234096E+02   -0.25497E-04   -0.21715E-04  6944   0.495E-02    0.609E-02
RMM:   8    -0.973070625532E+02    0.60856E-04   -0.82696E-05  6643   0.299E-02    0.134E-02
RMM:   9    -0.973070605803E+02    0.19730E-05   -0.84882E-06  3571   0.144E-02
  14 F= -.97307061E+02 E0= -.97220247E+02  d E =-.584956E-02
 ZBRENT: can't locate minimum, use default step
 trial-energy change:   -0.005850  1 .order   -0.006042   -0.006307   -0.005778
 step:   4.7418(harm= 14.1286)  dis= 0.03655  next Energy=   -97.338796 (dE=-0.376E-01)
 bond charge predicted
       N       E                     dE             d eps       ncg     rms          rms(c)
DAV:   1    -0.973011278633E+02    0.59347E-02   -0.11870E+01  6800   0.108E+01    0.519E-01
RMM:   2    -0.973249570567E+02   -0.23829E-01   -0.22779E-01  6842   0.189E+00    0.566E-01
RMM:   3    -0.973291335529E+02   -0.41765E-02   -0.28948E-02  9150   0.582E-01    0.703E-01
RMM:   4    -0.973437364450E+02   -0.14603E-01   -0.65624E-03  7459   0.238E-01    0.120E+00
RMM:   5    -0.973233775950E+02    0.20359E-01   -0.31393E-03  7129   0.182E-01    0.264E-01
RMM:   6    -0.973223732583E+02    0.10043E-02   -0.11581E-03  6886   0.119E-01    0.159E-01
RMM:   7    -0.973224621538E+02   -0.88895E-04   -0.19693E-03  7024   0.148E-01    0.175E-01
RMM:   8    -0.973219673412E+02    0.49481E-03   -0.88406E-04  7020   0.994E-02    0.408E-02
RMM:   9    -0.973219597184E+02    0.76228E-05   -0.12308E-04  6965   0.434E-02    0.416E-02
RMM:  10    -0.973219282021E+02    0.31516E-04   -0.22209E-05  3903   0.205E-02    0.192E-02
RMM:  11    -0.973219227243E+02    0.54777E-05   -0.21053E-05  3693   0.198E-02
  15 F= -.97321923E+02 E0= -.97235201E+02  d E =-.207117E-01
 curvature: -10.83 expect dE=-0.560E-01 dE for cont linesearch -0.940E-02
 ZBRENT: increasing intervall
 opt :  11.8544  next Energy=   -97.342222 (dE=-0.410E-01)
 bond charge predicted
       N       E                     dE             d eps       ncg     rms          rms(c)
DAV:   1    -0.972462347506E+02    0.75693E-01   -0.47476E+01  6800   0.217E+01    0.106E+00
RMM:   2    -0.973725265190E+02   -0.12629E+00   -0.10232E+00  6843   0.439E+00    0.165E+00
RMM:   3    -0.974921041304E+02   -0.11958E+00   -0.14416E-01  9176   0.114E+00    0.319E+00
RMM:   4    -0.973536695898E+02    0.13843E+00   -0.34140E-02  7255   0.605E-01    0.899E-01
RMM:   5    -0.973436951697E+02    0.99744E-02   -0.95619E-03  7030   0.338E-01    0.491E-01
RMM:   6    -0.973412201922E+02    0.24750E-02   -0.37751E-03  6912   0.220E-01    0.343E-01
RMM:   7    -0.973401818799E+02    0.10383E-02   -0.93146E-03  7002   0.319E-01    0.262E-01
RMM:   8    -0.973393597342E+02    0.82215E-03   -0.31873E-03  7033   0.201E-01    0.116E-01
RMM:   9    -0.973391867190E+02    0.17302E-03   -0.38243E-04  7273   0.683E-02    0.779E-02
RMM:  10    -0.973390860592E+02    0.10066E-03   -0.89970E-05  6713   0.347E-02    0.434E-02
RMM:  11    -0.973390462770E+02    0.39782E-04   -0.14196E-04  6826   0.387E-02    0.285E-02
RMM:  12    -0.973390348551E+02    0.11422E-04   -0.73926E-05  6444   0.314E-02    0.945E-03
RMM:  13    -0.973390359844E+02   -0.11294E-05   -0.77274E-06  3626   0.126E-02
  16 F= -.97339036E+02 E0= -.97252827E+02  d E =-.378250E-01
 curvature: -23.40 expect dE=-0.338E+00 dE for cont linesearch -0.175E-02
 trial: gam= 2.44873 g(F)=  0.145E-01 g(S)=  0.000E+00 ort = 0.114E-02 (trialstep = 0.464E+00)
 search vector abs. value=  0.123E+00
 bond charge predicted
       N       E                     dE             d eps       ncg     rms          rms(c)
DAV:   1    -0.973445733673E+02   -0.55385E-02   -0.14233E+00  6840   0.393E+00    0.190E-01
RMM:   2    -0.973526010948E+02   -0.80277E-02   -0.29517E-02  6844   0.611E-01    0.628E-01
RMM:   3    -0.973484913273E+02    0.41098E-02   -0.26835E-03  7688   0.202E-01    0.292E-01
RMM:   4    -0.973475313452E+02    0.95998E-03   -0.76040E-04  7043   0.100E-01    0.149E-01
RMM:   5    -0.973472434649E+02    0.28788E-03   -0.18392E-04  6866   0.509E-02    0.723E-02
RMM:   6    -0.973472055088E+02    0.37956E-04   -0.14707E-04  6797   0.459E-02    0.553E-02
RMM:   7    -0.973471695670E+02    0.35942E-04   -0.15744E-04  6909   0.424E-02    0.345E-02
RMM:   8    -0.973471502827E+02    0.19284E-04   -0.29967E-05  4129   0.209E-02    0.127E-02
RMM:   9    -0.973471490889E+02    0.11938E-05   -0.91399E-06  3534   0.179E-02
  17 F= -.97347149E+02 E0= -.97261047E+02  d E =-.811310E-02
 ZBRENT: can't locate minimum, use default step
 trial-energy change:   -0.008113  1 .order   -0.008260   -0.007996   -0.008525
 step:   1.8543(harm=  1.8543)  dis= 0.04560  next Energy=   -97.375252 (dE=-0.362E-01)
 bond charge predicted
       N       E                     dE             d eps       ncg     rms          rms(c)
DAV:   1    -0.973492612171E+02   -0.21109E-02   -0.12799E+01  6800   0.118E+01    0.581E-01
RMM:   2    -0.974321805369E+02   -0.82919E-01   -0.27788E-01  6850   0.195E+00    0.209E+00
RMM:   3    -0.973859899001E+02    0.46191E-01   -0.27090E-02  8086   0.586E-01    0.890E-01
RMM:   4    -0.973773139547E+02    0.86759E-02   -0.79565E-03  7039   0.324E-01    0.514E-01
RMM:   5    -0.973737764013E+02    0.35376E-02   -0.19018E-03  6871   0.166E-01    0.219E-01
RMM:   6    -0.973734046534E+02    0.37175E-03   -0.13076E-03  6817   0.138E-01    0.164E-01
RMM:   7    -0.973731746059E+02    0.23005E-03   -0.14267E-03  6966   0.130E-01    0.121E-01
RMM:   8    -0.973729442933E+02    0.23031E-03   -0.45667E-04  6979   0.728E-02    0.434E-02
RMM:   9    -0.973729253840E+02    0.18909E-04   -0.67201E-05  6033   0.295E-02    0.275E-02
RMM:  10    -0.973729140782E+02    0.11306E-04   -0.13282E-05  3698   0.174E-02    0.173E-02
RMM:  11    -0.973729114899E+02    0.25883E-05   -0.10533E-05  3616   0.163E-02
  18 F= -.97372911E+02 E0= -.97287285E+02  d E =-.338755E-01
 curvature: -10.19 expect dE=-0.173E+00 dE for cont linesearch -0.283E-01
 ZBRENT: increasing intervall
 opt :   4.6358  next Energy=   -97.424661 (dE=-0.856E-01)
 bond charge predicted
       N       E                     dE             d eps       ncg     rms          rms(c)
DAV:   1    -0.973269464250E+02    0.45968E-01   -0.51133E+01  6800   0.236E+01    0.122E+00
RMM:   2    -0.978195677403E+02   -0.49262E+00   -0.12556E+00  6842   0.440E+00    0.526E+00
RMM:   3    -0.974868502416E+02    0.33272E+00   -0.13768E-01  8034   0.123E+00    0.181E+00
RMM:   4    -0.974464735686E+02    0.40377E-01   -0.37565E-02  7015   0.713E-01    0.106E+00
RMM:   5    -0.974314516812E+02    0.15022E-01   -0.86221E-03  6856   0.362E-01    0.482E-01
RMM:   6    -0.974292420271E+02    0.22097E-02   -0.49089E-03  6832   0.272E-01    0.336E-01
RMM:   7    -0.974286360654E+02    0.60596E-03   -0.53731E-03  6895   0.264E-01    0.281E-01
RMM:   8    -0.974274880588E+02    0.11480E-02   -0.29292E-03  6960   0.186E-01    0.120E-01
RMM:   9    -0.974273310651E+02    0.15699E-03   -0.54365E-04  7517   0.789E-02    0.672E-02
RMM:  10    -0.974272580403E+02    0.73025E-04   -0.79110E-05  6412   0.327E-02    0.362E-02
RMM:  11    -0.974272474616E+02    0.10579E-04   -0.47338E-05  5110   0.267E-02    0.287E-02
RMM:  12    -0.974272465847E+02    0.87688E-06   -0.64641E-05  6257   0.289E-02
  19 F= -.97427247E+02 E0= -.97343179E+02  d E =-.882106E-01
 curvature: -18.64 expect dE=-0.445E+00 dE for cont linesearch -0.608E-01
 ZBRENT: increasing intervall
 opt :  10.1987  next Energy=   -97.547334 (dE=-0.208E+00)
 bond charge predicted
       N       E                     dE             d eps       ncg     rms          rms(c)
DAV:   1    -0.970647567884E+02    0.36249E+00   -0.20326E+02  6800   0.471E+01    0.251E+00
RMM:   2    -0.991867195915E+02   -0.21220E+01   -0.61076E+00  6838   0.100E+01    0.999E+00
RMM:   3    -0.978672149530E+02    0.13195E+01   -0.72395E-01  8181   0.266E+00    0.407E+00
RMM:   4    -0.975903930314E+02    0.27682E+00   -0.16025E-01  6949   0.148E+00    0.169E+00
RMM:   5    -0.975526052430E+02    0.37788E-01   -0.35173E-02  6897   0.730E-01    0.111E+00
RMM:   6    -0.975398867195E+02    0.12719E-01   -0.16686E-02  6891   0.491E-01    0.696E-01
RMM:   7    -0.975374019479E+02    0.24848E-02   -0.17544E-02  6841   0.498E-01    0.608E-01
RMM:   8    -0.975334392447E+02    0.39627E-02   -0.19336E-02  7040   0.479E-01    0.365E-01
RMM:   9    -0.975318760424E+02    0.15632E-02   -0.44291E-03  7186   0.236E-01    0.186E-01
RMM:  10    -0.975312789125E+02    0.59713E-03   -0.54238E-04  6979   0.819E-02    0.884E-02
RMM:  11    -0.975311856274E+02    0.93285E-04   -0.27489E-04  6837   0.623E-02    0.694E-02
RMM:  12    -0.975311188959E+02    0.66731E-04   -0.26210E-04  6911   0.601E-02    0.221E-02
RMM:  13    -0.975311480246E+02   -0.29129E-04   -0.60342E-05  5749   0.293E-02    0.223E-02
RMM:  14    -0.975311585741E+02   -0.10549E-04   -0.11741E-05  3796   0.170E-02    0.794E-03
RMM:  15    -0.975311708621E+02   -0.12288E-04   -0.44298E-06  3697   0.107E-02    0.847E-03
RMM:  16    -0.975311934660E+02   -0.22604E-04   -0.44542E-06  3730   0.848E-03    0.951E-03
RMM:  17    -0.975312026862E+02   -0.92202E-05   -0.21871E-06  3648   0.604E-03
  20 F= -.97531203E+02 E0= -.97451470E+02  d E =-.192167E+00
 curvature: -36.84 expect dE=-0.158E+01 dE for cont linesearch -0.638E-01
 ZBRENT: increasing intervall
 opt :  21.3245  next Energy=   -97.633246 (dE=-0.294E+00)
 bond charge predicted
       N       E                     dE             d eps       ncg     rms          rms(c)
DAV:   1    -0.949334279401E+02    0.25978E+01   -0.78873E+02  6800   0.920E+01    0.495E+00
RMM:   2    -0.101983415927E+03   -0.70500E+01   -0.32229E+01  6837   0.215E+01    0.149E+01
RMM:   3    -0.991560367922E+02    0.28274E+01   -0.34952E+00  8078   0.555E+00    0.909E+00
RMM:   4    -0.974621811430E+02    0.16939E+01   -0.69063E-01  6842   0.317E+00    0.233E+00
RMM:   5    -0.973914730971E+02    0.70708E-01   -0.15060E-01  7198   0.141E+00    0.198E+00
RMM:   6    -0.973588117280E+02    0.32661E-01   -0.49593E-02  6877   0.885E-01    0.149E+00
RMM:   7    -0.973496715366E+02    0.91402E-02   -0.13412E-01  6869   0.134E+00    0.129E+00
RMM:   8    -0.973321727616E+02    0.17499E-01   -0.57148E-02  7518   0.803E-01    0.837E-01
RMM:   9    -0.973257675939E+02    0.64052E-02   -0.21064E-02  6884   0.548E-01    0.534E-01
RMM:  10    -0.973211145571E+02    0.46530E-02   -0.24090E-03  6933   0.177E-01    0.226E-01
RMM:  11    -0.973202388385E+02    0.87572E-03   -0.16024E-03  6818   0.162E-01    0.160E-01
RMM:  12    -0.973197821002E+02    0.45674E-03   -0.11862E-03  6891   0.135E-01    0.845E-02
RMM:  13    -0.973197304341E+02    0.51666E-04   -0.39351E-04  7309   0.701E-02    0.347E-02
RMM:  14    -0.973197706408E+02   -0.40207E-04   -0.72958E-05  6111   0.284E-02    0.242E-02
RMM:  15    -0.973198130503E+02   -0.42410E-04   -0.16677E-05  3880   0.185E-02    0.257E-02
RMM:  16    -0.973198673730E+02   -0.54323E-04   -0.11025E-05  3839   0.174E-02    0.196E-02
RMM:  17    -0.973199022237E+02   -0.34851E-04   -0.58840E-06  3772   0.100E-02    0.153E-02
RMM:  18    -0.973199750253E+02   -0.72802E-04   -0.11046E-05  3924   0.962E-03    0.100E-02
RMM:  19    -0.973200022746E+02   -0.27249E-04   -0.47747E-06  3742   0.765E-03    0.909E-03
RMM:  20    -0.973200425182E+02   -0.40244E-04   -0.88381E-06  3848   0.772E-03    0.788E-03
RMM:  21    -0.973200632363E+02   -0.20718E-04   -0.71778E-06  3774   0.777E-03    0.601E-03
RMM:  22    -0.973200720090E+02   -0.87727E-05   -0.59619E-06  3516   0.737E-03
  21 F= -.97320072E+02 E0= -.97243782E+02  d E =0.189640E-01
 curvature: -58.93 expect dE=-0.646E+01 dE for cont linesearch -0.315E+01
 ZBRENT: bracketing found
 ZBRENT: interpolating
 opt :  11.8959  next Energy=   -97.543599 (dE=-0.205E+00)
 bond charge predicted
       N       E                     dE             d eps       ncg     rms          rms(c)
DAV:   1    -0.958079675920E+02    0.15121E+01   -0.56263E+02  6800   0.757E+01    0.432E+00
RMM:   2    -0.976679567106E+02   -0.18600E+01   -0.20176E+01  6844   0.177E+01    0.343E+00
RMM:   3    -0.980522044572E+02   -0.38425E+00   -0.23833E+00  9220   0.500E+00    0.599E+00
RMM:   4    -0.978302790478E+02    0.22193E+00   -0.21671E-01  7669   0.143E+00    0.353E+00
RMM:   5    -0.976109699620E+02    0.21931E+00   -0.98522E-02  6931   0.118E+00    0.194E+00
RMM:   6    -0.975959489068E+02    0.15021E-01   -0.38130E-02  6910   0.745E-01    0.161E+00
RMM:   7    -0.975724778666E+02    0.23471E-01   -0.55328E-02  7135   0.798E-01    0.131E+00
RMM:   8    -0.975636690400E+02    0.88088E-02   -0.85402E-02  6883   0.105E+00    0.859E-01
RMM:   9    -0.975569062253E+02    0.67628E-02   -0.28275E-02  7530   0.579E-01    0.551E-01
RMM:  10    -0.975533488512E+02    0.35574E-02   -0.31838E-03  6903   0.209E-01    0.326E-01
RMM:  11    -0.975518717207E+02    0.14771E-02   -0.14924E-03  6849   0.133E-01    0.156E-01
RMM:  12    -0.975514890499E+02    0.38267E-03   -0.18764E-03  6936   0.161E-01    0.909E-02
RMM:  13    -0.975513761862E+02    0.11286E-03   -0.49506E-04  7417   0.788E-02    0.315E-02
RMM:  14    -0.975513952739E+02   -0.19088E-04   -0.54540E-05  5511   0.270E-02    0.271E-02
RMM:  15    -0.975513955193E+02   -0.24541E-06   -0.17957E-05  3844   0.215E-02
  22 F= -.97551396E+02 E0= -.97472901E+02  d E =-.212360E+00
 curvature:  -0.23 expect dE=-0.118E-01 dE for cont linesearch -0.178E-03
 ZBRENT: interpolating
 opt :  14.9158  next Energy=   -97.567653 (dE=-0.229E+00)
 bond charge predicted
       N       E                     dE             d eps       ncg     rms          rms(c)
DAV:   1    -0.974322873096E+02    0.11911E+00   -0.60021E+01  6800   0.255E+01    0.126E+00
RMM:   2    -0.977643108620E+02   -0.33202E+00   -0.15030E+00  6837   0.483E+00    0.376E+00
RMM:   3    -0.976522922666E+02    0.11202E+00   -0.16059E-01  8382   0.131E+00    0.224E+00
RMM:   4    -0.975729216705E+02    0.79371E-01   -0.44929E-02  6895   0.806E-01    0.895E-01
RMM:   5    -0.975627090840E+02    0.10213E-01   -0.86626E-03  6913   0.357E-01    0.553E-01
RMM:   6    -0.975592948899E+02    0.34142E-02   -0.40862E-03  6847   0.249E-01    0.340E-01
RMM:   7    -0.975594619883E+02   -0.16710E-03   -0.71392E-03  6865   0.304E-01    0.345E-01
RMM:   8    -0.975576129041E+02    0.18491E-02   -0.40739E-03  6972   0.222E-01    0.121E-01
RMM:   9    -0.975574340436E+02    0.17886E-03   -0.60401E-04  7142   0.904E-02    0.727E-02
RMM:  10    -0.975573317819E+02    0.10226E-03   -0.97974E-05  6782   0.372E-02    0.363E-02
RMM:  11    -0.975573145380E+02    0.17244E-04   -0.42651E-05  4792   0.255E-02    0.270E-02
RMM:  12    -0.975573068451E+02    0.76929E-05   -0.66212E-05  6336   0.301E-02
  23 F= -.97557307E+02 E0= -.97480263E+02  d E =-.218271E+00
 curvature: -21.18 expect dE=-0.128E+01 dE for cont linesearch -0.511E-02
 ZBRENT: interpolating
 opt :  13.8309  next Energy=   -97.560265 (dE=-0.221E+00)
 bond charge predicted
       N       E                     dE             d eps       ncg     rms          rms(c)
DAV:   1    -0.975449605839E+02    0.12354E-01   -0.77277E+00  6840   0.908E+00    0.435E-01
RMM:   2    -0.975710242021E+02   -0.26064E-01   -0.17824E-01  6838   0.151E+00    0.805E-01
RMM:   3    -0.975768338851E+02   -0.58097E-02   -0.17004E-02  7869   0.505E-01    0.102E+00
RMM:   4    -0.975619576610E+02    0.14876E-01   -0.54757E-03  6914   0.272E-01    0.264E-01
RMM:   5    -0.975611376262E+02    0.82003E-03   -0.94659E-04  6952   0.117E-01    0.190E-01
RMM:   6    -0.975608079075E+02    0.32972E-03   -0.50031E-04  6883   0.811E-02    0.134E-01
RMM:   7    -0.975607228812E+02    0.85026E-04   -0.92632E-04  6871   0.107E-01    0.109E-01
RMM:   8    -0.975605342311E+02    0.18865E-03   -0.31931E-04  6942   0.617E-02    0.344E-02
RMM:   9    -0.975605203778E+02    0.13853E-04   -0.36738E-05  4483   0.243E-02    0.242E-02
RMM:  10    -0.975605113417E+02    0.90361E-05   -0.12203E-05  3714   0.209E-02
  24 F= -.97560511E+02 E0= -.97483048E+02  d E =-.221475E+00
 curvature: -12.26 expect dE=-0.702E+00 dE for cont linesearch -0.199E-04
 trial: gam= 2.38596 g(F)=  0.572E-01 g(S)=  0.000E+00 ort = 0.447E-03 (trialstep = 0.508E+00)
 search vector abs. value=  0.761E+00
 bond charge predicted
       N       E                     dE             d eps       ncg     rms          rms(c)
DAV:   1    -0.975643401618E+02   -0.38198E-02   -0.10394E+01  6800   0.108E+01    0.518E-01
RMM:   2    -0.976097570680E+02   -0.45417E-01   -0.24726E-01  6839   0.172E+00    0.126E+00
RMM:   3    -0.976024150438E+02    0.73420E-02   -0.21047E-02  7848   0.530E-01    0.995E-01
RMM:   4    -0.975878913624E+02    0.14524E-01   -0.80898E-03  6904   0.336E-01    0.392E-01
RMM:   5    -0.975861451687E+02    0.17462E-02   -0.18262E-03  6926   0.159E-01    0.256E-01
RMM:   6    -0.975853102711E+02    0.83490E-03   -0.78018E-04  6824   0.109E-01    0.132E-01
RMM:   7    -0.975854158142E+02   -0.10554E-03   -0.12523E-03  6857   0.128E-01    0.149E-01
RMM:   8    -0.975850255471E+02    0.39027E-03   -0.47101E-04  6862   0.763E-02    0.348E-02
RMM:   9    -0.975850086226E+02    0.16924E-04   -0.62920E-05  5735   0.317E-02    0.209E-02
RMM:  10    -0.975850029651E+02    0.56575E-05   -0.11443E-05  3776   0.159E-02
  25 F= -.97585003E+02 E0= -.97508077E+02  d E =-.244916E-01
 trial-energy change:   -0.024492  1 .order   -0.024689   -0.029619   -0.019758
 step:   1.5260(harm=  1.5260)  dis= 0.09580  next Energy=   -97.604994 (dE=-0.445E-01)
 bond charge predicted
       N       E                     dE             d eps       ncg     rms          rms(c)
DAV:   1    -0.975076802057E+02    0.77328E-01   -0.41788E+01  6800   0.215E+01    0.105E+00
RMM:   2    -0.976656416501E+02   -0.15796E+00   -0.10506E+00  6835   0.371E+00    0.210E+00
RMM:   3    -0.976985112157E+02   -0.32870E-01   -0.96387E-02  8047   0.106E+00    0.238E+00
RMM:   4    -0.976042150916E+02    0.94296E-01   -0.35907E-02  6906   0.700E-01    0.689E-01
RMM:   5    -0.975998796447E+02    0.43354E-02   -0.83087E-03  7142   0.319E-01    0.560E-01
RMM:   6    -0.975961362745E+02    0.37434E-02   -0.31468E-03  6850   0.212E-01    0.299E-01
RMM:   7    -0.975965911321E+02   -0.45486E-03   -0.50312E-03  6841   0.261E-01    0.323E-01
RMM:   8    -0.975948802530E+02    0.17109E-02   -0.25212E-03  6855   0.182E-01    0.111E-01
RMM:   9    -0.975947490646E+02    0.13119E-03   -0.38647E-04  7032   0.750E-02    0.677E-02
RMM:  10    -0.975946772352E+02    0.71829E-04   -0.55013E-05  5422   0.268E-02    0.247E-02
RMM:  11    -0.975946918155E+02   -0.14580E-04   -0.35785E-05  4361   0.252E-02    0.251E-02
RMM:  12    -0.975947119416E+02   -0.20126E-04   -0.37982E-05  4560   0.269E-02    0.176E-02
RMM:  13    -0.975947177048E+02   -0.57632E-05   -0.81187E-06  3706   0.156E-02
  26 F= -.97594718E+02 E0= -.97518365E+02  d E =-.342064E-01
 curvature:  -9.96 expect dE=-0.404E+00 dE for cont linesearch -0.945E-02
 ZBRENT: interpolating
 opt :   1.1101  next Energy=   -97.600305 (dE=-0.398E-01)
 bond charge predicted
       N       E                     dE             d eps       ncg     rms          rms(c)
DAV:   1    -0.975840264184E+02    0.10686E-01   -0.69452E+00  6800   0.862E+00    0.431E-01
RMM:   2    -0.976092352508E+02   -0.25209E-01   -0.17368E-01  6842   0.145E+00    0.794E-01
RMM:   3    -0.976160970490E+02   -0.68618E-02   -0.15507E-02  7579   0.475E-01    0.103E+00
RMM:   4    -0.976003797345E+02    0.15717E-01   -0.60090E-03  6898   0.288E-01    0.288E-01
RMM:   5    -0.975994943825E+02    0.88535E-03   -0.11137E-03  7024   0.121E-01    0.210E-01
RMM:   6    -0.975989605315E+02    0.53385E-03   -0.45845E-04  6823   0.808E-02    0.109E-01
RMM:   7    -0.975990050205E+02   -0.44489E-04   -0.84573E-04  6857   0.104E-01    0.114E-01
RMM:   8    -0.975987882680E+02    0.21675E-03   -0.29493E-04  6849   0.616E-02    0.334E-02
RMM:   9    -0.975987704266E+02    0.17841E-04   -0.37035E-05  4571   0.235E-02    0.165E-02
RMM:  10    -0.975987667645E+02    0.36621E-05   -0.11678E-05  3732   0.197E-02
  27 F= -.97598767E+02 E0= -.97522247E+02  d E =-.382554E-01
 curvature:  -5.89 expect dE=-0.255E+00 dE for cont linesearch -0.306E-03
 trial: gam=-0.07644 g(F)=  0.432E-01 g(S)=  0.000E+00 ort = 0.629E-02 (trialstep = 0.628E+00)
 search vector abs. value=  0.467E-01
 bond charge predicted
       N       E                     dE             d eps       ncg     rms          rms(c)
DAV:   1    -0.976226987443E+02   -0.23928E-01   -0.10388E+00  6920   0.296E+00    0.119E-01
RMM:   2    -0.976246388057E+02   -0.19401E-02   -0.18793E-02  6838   0.533E-01    0.136E-01
RMM:   3    -0.976260324812E+02   -0.13937E-02   -0.21325E-03  8762   0.173E-01    0.321E-01
RMM:   4    -0.976246324630E+02    0.14000E-02   -0.40998E-04  7731   0.591E-02    0.101E-01
RMM:   5    -0.976244958872E+02    0.13658E-03   -0.15760E-04  6959   0.426E-02    0.778E-02
RMM:   6    -0.976244366274E+02    0.59260E-04   -0.83742E-05  6573   0.320E-02    0.542E-02
RMM:   7    -0.976244044977E+02    0.32130E-04   -0.17403E-04  6872   0.431E-02    0.385E-02
RMM:   8    -0.976243846192E+02    0.19879E-04   -0.69226E-05  6398   0.276E-02    0.154E-02
RMM:   9    -0.976243822573E+02    0.23619E-05   -0.93069E-06  3629   0.136E-02
  28 F= -.97624382E+02 E0= -.97547904E+02  d E =-.256155E-01
 ZBRENT: can't locate minimum, use default step
 trial-energy change:   -0.025615  1 .order   -0.025622   -0.026856   -0.024388
 step:   2.5139(harm=  6.8388)  dis= 0.02080  next Energy=   -97.744888 (dE=-0.146E+00)
 bond charge predicted
       N       E                     dE             d eps       ncg     rms          rms(c)
DAV:   1    -0.976707034172E+02   -0.46319E-01   -0.93463E+00  6800   0.889E+00    0.367E-01
RMM:   2    -0.976882118518E+02   -0.17508E-01   -0.17668E-01  6836   0.174E+00    0.378E-01
RMM:   3    -0.976892562911E+02   -0.10444E-02   -0.22424E-02  9387   0.510E-01    0.340E-01
RMM:   4    -0.976904731822E+02   -0.12169E-02   -0.26588E-03  7453   0.160E-01    0.488E-01
RMM:   5    -0.976874924540E+02    0.29807E-02   -0.59423E-04  7275   0.833E-02    0.197E-01
RMM:   6    -0.976872040135E+02    0.28844E-03   -0.74470E-04  6836   0.975E-02    0.182E-01
RMM:   7    -0.976868569494E+02    0.34706E-03   -0.16295E-03  6868   0.131E-01    0.126E-01
RMM:   8    -0.976866763323E+02    0.18062E-03   -0.77465E-04  7364   0.915E-02    0.705E-02
RMM:   9    -0.976866292540E+02    0.47078E-04   -0.10864E-04  6824   0.386E-02    0.441E-02
RMM:  10    -0.976865955402E+02    0.33714E-04   -0.23054E-05  3885   0.183E-02    0.209E-02
RMM:  11    -0.976865910590E+02    0.44812E-05   -0.22806E-05  3788   0.215E-02
  29 F= -.97686591E+02 E0= -.97610178E+02  d E =-.878243E-01
 curvature:  -1.92 expect dE=-0.396E-01 dE for cont linesearch -0.298E-01
 ZBRENT: increasing intervall
 opt :   6.2847  next Energy=   -97.742953 (dE=-0.144E+00)
 bond charge predicted
       N       E                     dE             d eps       ncg     rms          rms(c)
DAV:   1    -0.976652796118E+02    0.21316E-01   -0.37377E+01  6800   0.178E+01    0.786E-01
RMM:   2    -0.977468545144E+02   -0.81575E-01   -0.80244E-01  6828   0.413E+00    0.935E-01
RMM:   3    -0.978147395032E+02   -0.67885E-01   -0.13169E-01  9478   0.107E+00    0.201E+00
RMM:   4    -0.977516078825E+02    0.63132E-01   -0.19651E-02  7333   0.408E-01    0.870E-01
RMM:   5    -0.977423744219E+02    0.92335E-02   -0.62484E-03  7070   0.279E-01    0.489E-01
RMM:   6    -0.977403140558E+02    0.20604E-02   -0.29505E-03  6909   0.190E-01    0.379E-01
RMM:   7    -0.977387440524E+02    0.15700E-02   -0.81761E-03  6974   0.293E-01    0.261E-01
RMM:   8    -0.977382286892E+02    0.51536E-03   -0.39397E-03  7211   0.220E-01    0.184E-01
RMM:   9    -0.977378530134E+02    0.37568E-03   -0.49076E-04  7428   0.800E-02    0.103E-01
RMM:  10    -0.977376883848E+02    0.16463E-03   -0.12198E-04  6776   0.395E-02    0.501E-02
RMM:  11    -0.977376775007E+02    0.10884E-04   -0.19000E-04  6871   0.450E-02    0.374E-02
RMM:  12    -0.977376960698E+02   -0.18569E-04   -0.79904E-05  6460   0.317E-02    0.350E-02
RMM:  13    -0.977376948120E+02    0.12578E-05   -0.82518E-06  3740   0.121E-02
  30 F= -.97737695E+02 E0= -.97661477E+02  d E =-.138928E+00
 curvature:  -3.64 expect dE=-0.910E-01 dE for cont linesearch -0.177E-04
 trial: gam= 0.57059 g(F)=  0.250E-01 g(S)=  0.000E+00 ort =-0.476E-03 (trialstep = 0.176E+01)
 search vector abs. value=  0.396E-01
 bond charge predicted
       N       E                     dE             d eps       ncg     rms          rms(c)
DAV:   1    -0.977678237601E+02   -0.30128E-01   -0.69771E+00  6800   0.730E+00    0.244E-01
RMM:   2    -0.977793761615E+02   -0.11552E-01   -0.10018E-01  6830   0.141E+00    0.396E-01
RMM:   3    -0.977839493630E+02   -0.45732E-02   -0.14992E-02  9600   0.385E-01    0.633E-01
RMM:   4    -0.977779017676E+02    0.60476E-02   -0.15983E-03  7015   0.145E-01    0.179E-01
RMM:   5    -0.977775128992E+02    0.38887E-03   -0.32935E-04  7169   0.619E-02    0.139E-01
RMM:   6    -0.977773966237E+02    0.11628E-03   -0.64932E-04  7259   0.775E-02    0.152E-01
RMM:   7    -0.977771640210E+02    0.23260E-03   -0.11847E-03  7202   0.104E-01    0.101E-01
RMM:   8    -0.977770484334E+02    0.11559E-03   -0.49418E-04  7067   0.797E-02    0.433E-02
RMM:   9    -0.977770263125E+02    0.22121E-04   -0.57666E-05  5696   0.283E-02    0.282E-02
RMM:  10    -0.977770110345E+02    0.15278E-04   -0.18214E-05  3702   0.192E-02    0.179E-02
RMM:  11    -0.977770066490E+02    0.43855E-05   -0.11633E-05  3634   0.156E-02
  31 F= -.97777007E+02 E0= -.97700572E+02  d E =-.393118E-01
 ZBRENT: can't locate minimum, use default step
 trial-energy change:   -0.039312  1 .order   -0.039211   -0.043461   -0.034961
 step:   7.0389(harm=  8.9977)  dis= 0.06612  next Energy=   -97.835673 (dE=-0.980E-01)
 bond charge predicted
       N       E                     dE             d eps       ncg     rms          rms(c)
DAV:   1    -0.977279199094E+02    0.49091E-01   -0.62639E+01  6800   0.221E+01    0.917E-01
RMM:   2    -0.978479421557E+02   -0.12002E+00   -0.12825E+00  6829   0.589E+00    0.806E-01
RMM:   3    -0.979483254108E+02   -0.10038E+00   -0.24860E-01  9400   0.139E+00    0.231E+00
RMM:   4    -0.978616031433E+02    0.86722E-01   -0.19450E-02  7362   0.436E-01    0.740E-01
RMM:   5    -0.978547613244E+02    0.68418E-02   -0.44110E-03  6957   0.250E-01    0.499E-01
RMM:   6    -0.978529316040E+02    0.18297E-02   -0.23576E-03  7568   0.150E-01    0.469E-01
RMM:   7    -0.978498054719E+02    0.31261E-02   -0.82177E-03  7085   0.285E-01    0.369E-01
RMM:   8    -0.978481744473E+02    0.16310E-02   -0.14748E-02  7147   0.405E-01    0.221E-01
RMM:   9    -0.978477235876E+02    0.45086E-03   -0.23878E-03  7902   0.183E-01    0.124E-01
RMM:  10    -0.978475097615E+02    0.21383E-03   -0.28423E-04  6993   0.601E-02    0.970E-02
RMM:  11    -0.978473231041E+02    0.18666E-03   -0.28175E-04  6817   0.571E-02    0.601E-02
RMM:  12    -0.978472372357E+02    0.85868E-04   -0.33090E-04  7302   0.573E-02    0.190E-02
RMM:  13    -0.978472339889E+02    0.32467E-05   -0.37609E-05  4566   0.276E-02
  32 F= -.97847234E+02 E0= -.97770043E+02  d E =-.109539E+00
 curvature:  -6.69 expect dE=-0.503E-01 dE for cont linesearch -0.659E-02
 ZBRENT: extrapolating
 opt :   9.4609  next Energy=   -97.854801 (dE=-0.117E+00)
 bond charge predicted
       N       E                     dE             d eps       ncg     rms          rms(c)
DAV:   1    -0.978372683164E+02    0.99689E-02   -0.13227E+01  6800   0.101E+01    0.360E-01
RMM:   2    -0.978567063997E+02   -0.19438E-01   -0.20068E-01  6829   0.210E+00    0.311E-01
RMM:   3    -0.978618920562E+02   -0.51857E-02   -0.30943E-02  9541   0.546E-01    0.594E-01
RMM:   4    -0.978591327205E+02    0.27593E-02   -0.17271E-03  7493   0.128E-01    0.381E-01
RMM:   5    -0.978570252696E+02    0.21075E-02   -0.69789E-04  7077   0.924E-02    0.211E-01
RMM:   6    -0.978567113956E+02    0.31387E-03   -0.41780E-04  7097   0.674E-02    0.199E-01
RMM:   7    -0.978561163191E+02    0.59508E-03   -0.21128E-03  6964   0.138E-01    0.153E-01
RMM:   8    -0.978559117074E+02    0.20461E-03   -0.22985E-03  7434   0.159E-01    0.865E-02
RMM:   9    -0.978558281659E+02    0.83541E-04   -0.23865E-04  7575   0.598E-02    0.545E-02
RMM:  10    -0.978557722933E+02    0.55873E-04   -0.41594E-05  4871   0.241E-02    0.331E-02
RMM:  11    -0.978557516530E+02    0.20640E-04   -0.34821E-05  4286   0.249E-02    0.220E-02
RMM:  12    -0.978557402367E+02    0.11416E-04   -0.73600E-05  6465   0.273E-02    0.598E-03
RMM:  13    -0.978557402469E+02   -0.10205E-07   -0.76378E-06  3559   0.151E-02
  33 F= -.97855740E+02 E0= -.97778177E+02  d E =-.118045E+00
 curvature:  -7.68 expect dE=-0.846E-01 dE for cont linesearch -0.866E-06
 trial: gam= 0.43765 g(F)=  0.110E-01 g(S)=  0.000E+00 ort = 0.668E-04 (trialstep = 0.330E+01)
 search vector abs. value=  0.187E-01
 bond charge predicted
       N       E                     dE             d eps       ncg     rms          rms(c)
DAV:   1    -0.978669508596E+02   -0.11211E-01   -0.11256E+01  6800   0.102E+01    0.405E-01
RMM:   2    -0.978897305580E+02   -0.22780E-01   -0.22113E-01  6828   0.191E+00    0.393E-01
RMM:   3    -0.979154011998E+02   -0.25671E-01   -0.25950E-02  9158   0.561E-01    0.134E+00
RMM:   4    -0.978893788545E+02    0.26022E-01   -0.50771E-03  7250   0.223E-01    0.291E-01
RMM:   5    -0.978881613217E+02    0.12175E-02   -0.11332E-03  6862   0.132E-01    0.216E-01
RMM:   6    -0.978878091966E+02    0.35213E-03   -0.56405E-04  6960   0.829E-02    0.176E-01
RMM:   7    -0.978874655683E+02    0.34363E-03   -0.17667E-03  7080   0.132E-01    0.131E-01
RMM:   8    -0.978872723883E+02    0.19318E-03   -0.10124E-03  7345   0.103E-01    0.618E-02
RMM:   9    -0.978872231181E+02    0.49270E-04   -0.99593E-05  6782   0.393E-02    0.388E-02
RMM:  10    -0.978871963955E+02    0.26723E-04   -0.19002E-05  3789   0.175E-02    0.222E-02
RMM:  11    -0.978871892349E+02    0.71606E-05   -0.18371E-05  3667   0.205E-02
  34 F= -.97887189E+02 E0= -.97809546E+02  d E =-.314490E-01
 trial-energy change:   -0.031449  1 .order   -0.031173   -0.036459   -0.025887
 step:   8.9687(harm= 11.3803)  dis= 0.06735  next Energy=   -97.910822 (dE=-0.551E-01)
 bond charge predicted
       N       E                     dE             d eps       ncg     rms          rms(c)
DAV:   1    -0.978498471348E+02    0.37349E-01   -0.33185E+01  6800   0.175E+01    0.728E-01
RMM:   2    -0.979197354454E+02   -0.69888E-01   -0.70689E-01  6827   0.371E+00    0.596E-01
RMM:   3    -0.979750552032E+02   -0.55320E-01   -0.90408E-02  9336   0.987E-01    0.196E+00
RMM:   4    -0.979216904447E+02    0.53365E-01   -0.11381E-02  7344   0.333E-01    0.510E-01
RMM:   5    -0.979180058193E+02    0.36846E-02   -0.32740E-03  6837   0.232E-01    0.388E-01
RMM:   6    -0.979169702060E+02    0.10356E-02   -0.16236E-03  7067   0.138E-01    0.324E-01
RMM:   7    -0.979157801446E+02    0.11901E-02   -0.50756E-03  7109   0.226E-01    0.246E-01
RMM:   8    -0.979152478349E+02    0.53231E-03   -0.39362E-03  7256   0.207E-01    0.141E-01
RMM:   9    -0.979149634087E+02    0.28443E-03   -0.41362E-04  7287   0.803E-02    0.672E-02
RMM:  10    -0.979148837590E+02    0.79650E-04   -0.78226E-05  6569   0.323E-02    0.393E-02
RMM:  11    -0.979148604015E+02    0.23357E-04   -0.94545E-05  6702   0.312E-02    0.263E-02
RMM:  12    -0.979148578207E+02    0.25808E-05   -0.58369E-05  5865   0.271E-02
  35 F= -.97914858E+02 E0= -.97837076E+02  d E =-.591176E-01
 curvature:  -8.76 expect dE=-0.187E-01 dE for cont linesearch -0.990E-03
 ZBRENT: extrapolating
 opt :  10.2570  next Energy=   -97.915794 (dE=-0.601E-01)
 bond charge predicted
       N       E                     dE             d eps       ncg     rms          rms(c)
DAV:   1    -0.979127743461E+02    0.20861E-02   -0.17189E+00  7000   0.395E+00    0.154E-01
RMM:   2    -0.979163071305E+02   -0.35328E-02   -0.32483E-02  6828   0.697E-01    0.185E-01
RMM:   3    -0.979196456941E+02   -0.33386E-02   -0.34184E-03  8714   0.215E-01    0.492E-01
RMM:   4    -0.979160136918E+02    0.36320E-02   -0.78066E-04  7266   0.918E-02    0.106E-01
RMM:   5    -0.979158664486E+02    0.14724E-03   -0.16320E-04  6861   0.470E-02    0.839E-02
RMM:   6    -0.979158151226E+02    0.51326E-04   -0.89552E-05  6534   0.331E-02    0.689E-02
RMM:   7    -0.979157815042E+02    0.33618E-04   -0.26929E-04  7113   0.525E-02    0.562E-02
RMM:   8    -0.979157389001E+02    0.42604E-04   -0.12903E-04  6814   0.363E-02    0.217E-02
RMM:   9    -0.979157332000E+02    0.57000E-05   -0.10629E-05  3664   0.164E-02
  36 F= -.97915733E+02 E0= -.97837926E+02  d E =-.599930E-01
 curvature:  -8.28 expect dE=-0.241E-01 dE for cont linesearch -0.186E-04
 trial: gam= 0.33296 g(F)=  0.291E-02 g(S)=  0.000E+00 ort =-0.205E-03 (trialstep = 0.469E+01)
 search vector abs. value=  0.484E-02
 bond charge predicted
       N       E                     dE             d eps       ncg     rms          rms(c)
DAV:   1    -0.979147478665E+02    0.99103E-03   -0.58695E+00  6800   0.728E+00    0.279E-01
RMM:   2    -0.979261725898E+02   -0.11425E-01   -0.10906E-01  6828   0.136E+00    0.292E-01
RMM:   3    -0.979364416148E+02   -0.10269E-01   -0.12985E-02  9339   0.382E-01    0.836E-01
RMM:   4    -0.979257547416E+02    0.10687E-01   -0.23167E-03  7165   0.161E-01    0.173E-01
RMM:   5    -0.979252944490E+02    0.46029E-03   -0.48160E-04  6985   0.792E-02    0.127E-01
RMM:   6    -0.979251978470E+02    0.96602E-04   -0.41350E-04  7007   0.699E-02    0.114E-01
RMM:   7    -0.979250527667E+02    0.14508E-03   -0.11026E-03  6959   0.103E-01    0.841E-02
RMM:   8    -0.979249695069E+02    0.83260E-04   -0.29479E-04  7120   0.615E-02    0.344E-02
RMM:   9    -0.979249431141E+02    0.26393E-04   -0.22314E-05  3885   0.185E-02    0.222E-02
RMM:  10    -0.979249342446E+02    0.88695E-05   -0.12386E-05  3647   0.199E-02
  37 F= -.97924934E+02 E0= -.97846929E+02  d E =-.920104E-02
 trial-energy change:   -0.009201  1 .order   -0.009275   -0.013334   -0.005216
 step:   8.0142(harm=  7.7053)  dis= 0.02532  next Energy=   -97.926755 (dE=-0.110E-01)
 bond charge predicted
       N       E                     dE             d eps       ncg     rms          rms(c)
DAV:   1    -0.979216892932E+02    0.32538E-02   -0.29431E+00  6800   0.516E+00    0.196E-01
RMM:   2    -0.979274189079E+02   -0.57296E-02   -0.54186E-02  6827   0.936E-01    0.212E-01
RMM:   3    -0.979322798049E+02   -0.48609E-02   -0.61167E-03  9192   0.274E-01    0.579E-01
RMM:   4    -0.979271235777E+02    0.51562E-02   -0.11197E-03  7186   0.111E-01    0.118E-01
RMM:   5    -0.979269076318E+02    0.21595E-03   -0.23595E-04  6962   0.554E-02    0.879E-02
RMM:   6    -0.979268797053E+02    0.27926E-04   -0.24611E-04  7044   0.534E-02    0.859E-02
RMM:   7    -0.979267983414E+02    0.81364E-04   -0.52167E-04  6992   0.707E-02    0.585E-02
RMM:   8    -0.979267593894E+02    0.38952E-04   -0.12450E-04  6819   0.408E-02    0.273E-02
RMM:   9    -0.979267454703E+02    0.13919E-04   -0.11236E-05  3734   0.130E-02    0.168E-02
RMM:  10    -0.979267409594E+02    0.45110E-05   -0.62138E-06  3579   0.144E-02
  38 F= -.97926741E+02 E0= -.97848591E+02  d E =-.110078E-01
 curvature:  -6.50 expect dE=-0.122E-01 dE for cont linesearch -0.394E-05
 trial: gam= 0.64015 g(F)=  0.188E-02 g(S)=  0.000E+00 ort = 0.542E-04 (trialstep = 0.536E+01)
 search vector abs. value=  0.393E-02
 bond charge predicted
       N       E                     dE             d eps       ncg     rms          rms(c)
DAV:   1    -0.979248233477E+02    0.19221E-02   -0.62192E+00  6800   0.707E+00    0.249E-01
RMM:   2    -0.979339198574E+02   -0.90965E-02   -0.94386E-02  6829   0.139E+00    0.191E-01
RMM:   3    -0.979380978862E+02   -0.41780E-02   -0.13667E-02  9639   0.351E-01    0.489E-01
RMM:   4    -0.979353855263E+02    0.27124E-02   -0.10752E-03  7463   0.924E-02    0.273E-01
RMM:   5    -0.979343452943E+02    0.10402E-02   -0.40492E-04  6963   0.756E-02    0.132E-01
RMM:   6    -0.979341878276E+02    0.15747E-03   -0.37189E-04  7130   0.624E-02    0.124E-01
RMM:   7    -0.979339995012E+02    0.18833E-03   -0.10997E-03  6964   0.104E-01    0.909E-02
RMM:   8    -0.979339647699E+02    0.34731E-04   -0.74501E-04  7733   0.879E-02    0.525E-02
RMM:   9    -0.979339210088E+02    0.43761E-04   -0.64027E-05  6232   0.339E-02    0.342E-02
RMM:  10    -0.979338968074E+02    0.24201E-04   -0.18232E-05  3641   0.166E-02    0.239E-02
RMM:  11    -0.979338828940E+02    0.13913E-04   -0.23988E-05  3690   0.195E-02    0.147E-02
RMM:  12    -0.979338778309E+02    0.50632E-05   -0.46721E-05  5183   0.241E-02
  39 F= -.97933878E+02 E0= -.97856003E+02  d E =-.713687E-02
 trial-energy change:   -0.007137  1 .order   -0.007013   -0.010234   -0.003791
 step:   8.0416(harm=  8.5080)  dis= 0.01716  next Energy=   -97.934844 (dE=-0.810E-02)
 bond charge predicted
       N       E                     dE             d eps       ncg     rms          rms(c)
DAV:   1    -0.979329281561E+02    0.95474E-03   -0.15666E+00  6800   0.354E+00    0.117E-01
RMM:   2    -0.979351164529E+02   -0.21883E-02   -0.22523E-02  6833   0.647E-01    0.861E-02
RMM:   3    -0.979356596230E+02   -0.54317E-03   -0.28316E-03  9581   0.176E-01    0.176E-01
RMM:   4    -0.979354089855E+02    0.25064E-03   -0.17880E-04  7282   0.377E-02    0.127E-01
RMM:   5    -0.979351993623E+02    0.20962E-03   -0.76009E-05  6149   0.324E-02    0.651E-02
RMM:   6    -0.979351569187E+02    0.42444E-04   -0.10359E-04  6752   0.333E-02    0.612E-02
RMM:   7    -0.979351225201E+02    0.34399E-04   -0.31008E-04  7033   0.545E-02    0.479E-02
RMM:   8    -0.979351060804E+02    0.16440E-04   -0.14606E-04  6926   0.393E-02    0.238E-02
RMM:   9    -0.979350962260E+02    0.98544E-05   -0.10663E-05  3582   0.154E-02
  40 F= -.97935096E+02 E0= -.97857348E+02  d E =-.835527E-02
 curvature:  -8.56 expect dE=-0.673E-02 dE for cont linesearch -0.850E-04
 trial: gam= 0.28348 g(F)=  0.787E-03 g(S)=  0.000E+00 ort = 0.198E-03 (trialstep = 0.589E+01)
 search vector abs. value=  0.121E-02
 bond charge predicted
       N       E                     dE             d eps       ncg     rms          rms(c)
DAV:   1    -0.979354045554E+02   -0.29847E-03   -0.23796E+00  6800   0.432E+00    0.162E-01
RMM:   2    -0.979412878792E+02   -0.58833E-02   -0.37042E-02  6829   0.807E-01    0.415E-01
RMM:   3    -0.979410651993E+02    0.22268E-03   -0.54473E-03  9604   0.229E-01    0.354E-01
RMM:   4    -0.979390707076E+02    0.19945E-02   -0.83223E-04  6911   0.105E-01    0.120E-01
RMM:   5    -0.979388891388E+02    0.18157E-03   -0.18629E-04  7173   0.438E-02    0.878E-02
RMM:   6    -0.979388407972E+02    0.48342E-04   -0.14044E-04  6814   0.389E-02    0.794E-02
RMM:   7    -0.979387938909E+02    0.46906E-04   -0.52423E-04  6992   0.706E-02    0.648E-02
RMM:   8    -0.979387299571E+02    0.63934E-04   -0.17144E-04  7127   0.446E-02    0.155E-02
RMM:   9    -0.979387253950E+02    0.45621E-05   -0.14773E-05  3658   0.169E-02
  41 F= -.97938725E+02 E0= -.97861122E+02  d E =-.362917E-02
 trial-energy change:   -0.003629  1 .order   -0.003703   -0.004966   -0.002439
 step:  18.2373(harm= 11.5799)  dis= 0.02179  next Energy=   -97.940605 (dE=-0.551E-02)
 bond charge predicted
       N       E                     dE             d eps       ncg     rms          rms(c)
DAV:   1    -0.979215806449E+02    0.17149E-01   -0.10436E+01  6800   0.906E+00    0.358E-01
RMM:   2    -0.979516169859E+02   -0.30036E-01   -0.17473E-01  6827   0.189E+00    0.101E+00
RMM:   3    -0.979486643838E+02    0.29526E-02   -0.28798E-02  9529   0.485E-01    0.775E-01
RMM:   4    -0.979387220116E+02    0.99424E-02   -0.41482E-03  6919   0.240E-01    0.263E-01
RMM:   5    -0.979378219444E+02    0.90007E-03   -0.87574E-04  7214   0.973E-02    0.187E-01
RMM:   6    -0.979375892760E+02    0.23267E-03   -0.56947E-04  6934   0.801E-02    0.169E-01
RMM:   7    -0.979373497124E+02    0.23956E-03   -0.25482E-03  6955   0.160E-01    0.143E-01
RMM:   8    -0.979370713106E+02    0.27840E-03   -0.97900E-04  7441   0.108E-01    0.442E-02
RMM:   9    -0.979370350598E+02    0.36251E-04   -0.88403E-05  6697   0.345E-02    0.355E-02
RMM:  10    -0.979370102001E+02    0.24860E-04   -0.20100E-05  3757   0.172E-02    0.197E-02
RMM:  11    -0.979369994672E+02    0.10733E-04   -0.36385E-05  4403   0.213E-02    0.111E-02
RMM:  12    -0.979369983562E+02    0.11109E-05   -0.15265E-05  3575   0.182E-02
  42 F= -.97936998E+02 E0= -.97859686E+02  d E =-.190213E-02
 curvature:   3.09 expect dE= 0.507E-02 dE for cont linesearch  0.127E-02
 ZBRENT: interpolating
 opt :  10.4489  next Energy=   -97.939668 (dE=-0.457E-02)
 bond charge predicted
       N       E                     dE             d eps       ncg     rms          rms(c)
DAV:   1    -0.979338553387E+02    0.31441E-02   -0.41571E+00  6800   0.571E+00    0.200E-01
RMM:   2    -0.979417277616E+02   -0.78724E-02   -0.63001E-02  6827   0.105E+00    0.373E-01
RMM:   3    -0.979439488263E+02   -0.22211E-02   -0.91488E-03  9432   0.324E-01    0.503E-01
RMM:   4    -0.979403431431E+02    0.36057E-02   -0.13319E-03  7177   0.123E-01    0.166E-01
RMM:   5    -0.979399779892E+02    0.36515E-03   -0.28310E-04  7021   0.563E-02    0.121E-01
RMM:   6    -0.979398938654E+02    0.84124E-04   -0.25153E-04  6883   0.527E-02    0.111E-01
RMM:   7    -0.979397672354E+02    0.12663E-03   -0.10448E-03  7004   0.972E-02    0.806E-02
RMM:   8    -0.979396738555E+02    0.93380E-04   -0.29863E-04  7478   0.598E-02    0.280E-02
RMM:   9    -0.979396607448E+02    0.13111E-04   -0.25437E-05  3941   0.204E-02    0.235E-02
RMM:  10    -0.979396507465E+02    0.99984E-05   -0.13251E-05  3584   0.218E-02
  43 F= -.97939651E+02 E0= -.97862166E+02  d E =-.455452E-02
 curvature:  -2.29 expect dE=-0.881E-03 dE for cont linesearch -0.264E-06
 trial: gam= 0.56546 g(F)=  0.385E-03 g(S)=  0.000E+00 ort =-0.119E-04 (trialstep = 0.680E+01)
 search vector abs. value=  0.760E-03
 bond charge predicted
       N       E                     dE             d eps       ncg     rms          rms(c)
DAV:   1    -0.979380512673E+02    0.16095E-02   -0.19271E+00  6800   0.415E+00    0.162E-01
RMM:   2    -0.979419002594E+02   -0.38490E-02   -0.34668E-02  6833   0.758E-01    0.211E-01
RMM:   3    -0.979449324255E+02   -0.30322E-02   -0.41647E-03  9395   0.212E-01    0.466E-01
RMM:   4    -0.979417634643E+02    0.31690E-02   -0.86829E-04  7277   0.921E-02    0.159E-01
RMM:   5    -0.979413790792E+02    0.38439E-03   -0.20279E-04  6923   0.504E-02    0.791E-02
RMM:   6    -0.979413264646E+02    0.52615E-04   -0.10090E-04  6748   0.349E-02    0.680E-02
RMM:   7    -0.979412942679E+02    0.32197E-04   -0.34513E-04  7004   0.590E-02    0.576E-02
RMM:   8    -0.979412464723E+02    0.47796E-04   -0.17077E-04  7039   0.415E-02    0.187E-02
RMM:   9    -0.979412419397E+02    0.45327E-05   -0.13575E-05  3690   0.181E-02
  44 F= -.97941242E+02 E0= -.97863902E+02  d E =-.159119E-02
 trial-energy change:   -0.001591  1 .order   -0.001635   -0.002574   -0.000697
 step:   9.9928(harm=  9.3313)  dis= 0.01422  next Energy=   -97.941401 (dE=-0.175E-02)
 bond charge predicted
       N       E                     dE             d eps       ncg     rms          rms(c)
DAV:   1    -0.979405642054E+02    0.68227E-03   -0.42186E-01  6800   0.194E+00    0.803E-02
RMM:   2    -0.979413827256E+02   -0.81852E-03   -0.77668E-03  6835   0.353E-01    0.843E-02
RMM:   3    -0.979419614289E+02   -0.57870E-03   -0.93783E-04  9271   0.106E-01    0.203E-01
RMM:   4    -0.979414477757E+02    0.51365E-03   -0.17811E-04  7252   0.397E-02    0.919E-02
RMM:   5    -0.979413164307E+02    0.13134E-03   -0.53558E-05  5347   0.273E-02    0.375E-02
RMM:   6    -0.979413027928E+02    0.13638E-04   -0.21593E-05  3703   0.217E-02    0.301E-02
RMM:   7    -0.979412981624E+02    0.46304E-05   -0.68494E-05  6352   0.304E-02
  45 F= -.97941298E+02 E0= -.97864028E+02  d E =-.164742E-02
 curvature:  -8.73 expect dE=-0.141E-02 dE for cont linesearch -0.205E-05
 trial: gam= 0.31456 g(F)=  0.161E-03 g(S)=  0.000E+00 ort =-0.134E-04 (trialstep = 0.744E+01)
 search vector abs. value=  0.228E-03
 bond charge predicted
       N       E                     dE             d eps       ncg     rms          rms(c)
DAV:   1    -0.979409204618E+02    0.38233E-03   -0.70891E-01  6800   0.237E+00    0.830E-02
RMM:   2    -0.979419502780E+02   -0.10298E-02   -0.10339E-02  6828   0.418E-01    0.824E-02
RMM:   3    -0.979423591102E+02   -0.40883E-03   -0.13090E-03  9306   0.128E-01    0.163E-01
RMM:   4    -0.979421176716E+02    0.24144E-03   -0.16877E-04  7169   0.369E-02    0.115E-01
RMM:   5    -0.979419274067E+02    0.19026E-03   -0.62163E-05  5675   0.290E-02    0.462E-02
RMM:   6    -0.979419082976E+02    0.19109E-04   -0.39731E-05  4601   0.254E-02    0.402E-02
RMM:   7    -0.979418886923E+02    0.19605E-04   -0.15397E-04  6802   0.418E-02    0.274E-02
RMM:   8    -0.979418822105E+02    0.64819E-05   -0.47170E-05  5194   0.251E-02
  46 F= -.97941882E+02 E0= -.97864608E+02  d E =-.584048E-03
 trial-energy change:   -0.000584  1 .order   -0.000728   -0.001167   -0.000290
 step:   9.8999(harm=  9.8999)  dis= 0.00817  next Energy=   -97.942074 (dE=-0.776E-03)
 bond charge predicted
       N       E                     dE             d eps       ncg     rms          rms(c)
DAV:   1    -0.979417699634E+02    0.11873E-03   -0.76786E-02  6920   0.780E-01    0.312E-02
RMM:   2    -0.979419064981E+02   -0.13653E-03   -0.11967E-03  6829   0.140E-01    0.460E-02
RMM:   3    -0.979419792916E+02   -0.72793E-04   -0.15390E-04  7222   0.456E-02    0.775E-02
RMM:   4    -0.979418956932E+02    0.83598E-04   -0.32359E-05  4249   0.241E-02    0.302E-02
RMM:   5    -0.979418838641E+02    0.11829E-04   -0.12732E-05  3601   0.215E-02    0.151E-02
RMM:   6    -0.979418825517E+02    0.13125E-05   -0.52517E-06  3489   0.110E-02
  47 F= -.97941883E+02 E0= -.97864606E+02  d E =-.584389E-03
 curvature:  -7.19 expect dE=-0.152E-02 dE for cont linesearch -0.284E-05
 trial: gam= 1.28184 g(F)=  0.211E-03 g(S)=  0.000E+00 ort =-0.948E-05 (trialstep = 0.322E+01)
 search vector abs. value=  0.561E-03
 bond charge predicted
       N       E                     dE             d eps       ncg     rms          rms(c)
DAV:   1    -0.979419734795E+02   -0.89615E-04   -0.32834E-01  6820   0.156E+00    0.482E-02
RMM:   2    -0.979424195861E+02   -0.44611E-03   -0.40872E-03  6833   0.274E-01    0.659E-02
RMM:   3    -0.979426156779E+02   -0.19609E-03   -0.56216E-04  9250   0.787E-02    0.116E-01
RMM:   4    -0.979424068550E+02    0.20882E-03   -0.51996E-05  5192   0.241E-02    0.405E-02
RMM:   5    -0.979423862810E+02    0.20574E-04   -0.15186E-05  3638   0.193E-02    0.293E-02
RMM:   6    -0.979423876578E+02   -0.13769E-05   -0.56907E-05  5783   0.249E-02
  48 F= -.97942388E+02 E0= -.97865151E+02  d E =-.505106E-03
 ZBRENT: can't locate minimum, use default step
 trial-energy change:   -0.000505  1 .order   -0.000593   -0.000640   -0.000545
 step:  12.8924(harm= 21.7468)  dis= 0.01475  next Energy=   -97.944042 (dE=-0.216E-02)
 bond charge predicted
       N       E                     dE             d eps       ncg     rms          rms(c)
DAV:   1    -0.979389164017E+02    0.34699E-02   -0.29502E+00  6800   0.468E+00    0.151E-01
RMM:   2    -0.979435441254E+02   -0.46277E-02   -0.38535E-02  6832   0.871E-01    0.269E-01
RMM:   3    -0.979445110400E+02   -0.96691E-03   -0.57925E-03  9546   0.231E-01    0.313E-01
RMM:   4    -0.979429219891E+02    0.15891E-02   -0.47273E-04  7051   0.768E-02    0.111E-01
RMM:   5    -0.979427814616E+02    0.14053E-03   -0.12356E-04  6834   0.374E-02    0.840E-02
RMM:   6    -0.979427849368E+02   -0.34752E-05   -0.35054E-04  7214   0.581E-02    0.106E-01
RMM:   7    -0.979426403713E+02    0.14457E-03   -0.65949E-04  7081   0.778E-02    0.514E-02
RMM:   8    -0.979426112979E+02    0.29073E-04   -0.11794E-04  6708   0.458E-02    0.251E-02
RMM:   9    -0.979425980999E+02    0.13198E-04   -0.10843E-05  3618   0.123E-02    0.181E-02
RMM:  10    -0.979425926974E+02    0.54025E-05   -0.50212E-06  3521   0.131E-02
  49 F= -.97942593E+02 E0= -.97865494E+02  d E =-.710146E-03
 curvature: -23.69 expect dE=-0.675E-02 dE for cont linesearch -0.960E-05
 trial: gam= 1.25108 g(F)=  0.285E-03 g(S)=  0.000E+00 ort =-0.151E-04 (trialstep = 0.257E+01)
 search vector abs. value=  0.113E-02
 bond charge predicted
       N       E                     dE             d eps       ncg     rms          rms(c)
DAV:   1    -0.979424577043E+02    0.14040E-03   -0.41258E-01  6800   0.183E+00    0.647E-02
RMM:   2    -0.979431037277E+02   -0.64602E-03   -0.61292E-03  6843   0.326E-01    0.679E-02
RMM:   3    -0.979436751771E+02   -0.57145E-03   -0.78996E-04  9242   0.959E-02    0.194E-01
RMM:   4    -0.979430841928E+02    0.59098E-03   -0.10586E-04  6660   0.315E-02    0.381E-02
RMM:   5    -0.979430644738E+02    0.19719E-04   -0.21305E-05  3792   0.200E-02    0.339E-02
RMM:   6    -0.979430553077E+02    0.91661E-05   -0.34272E-05  4311   0.249E-02
  50 F= -.97943055E+02 E0= -.97865956E+02  d E =-.462610E-03
 ZBRENT: can't locate minimum, use default step
 trial-energy change:   -0.000463  1 .order   -0.000636   -0.000684   -0.000587
 step:  10.2818(harm= 18.1292)  dis= 0.01180  next Energy=   -97.945006 (dE=-0.241E-02)
 bond charge predicted
       N       E                     dE             d eps       ncg     rms          rms(c)
DAV:   1    -0.979382513921E+02    0.48131E-02   -0.37176E+00  6800   0.552E+00    0.199E-01
RMM:   2    -0.979442124834E+02   -0.59611E-02   -0.55097E-02  6842   0.100E+00    0.235E-01
RMM:   3    -0.979488942902E+02   -0.46818E-02   -0.76084E-03  9489   0.276E-01    0.557E-01
RMM:   4    -0.979439571870E+02    0.49371E-02   -0.10217E-03  7200   0.970E-02    0.133E-01
RMM:   5    -0.979437167695E+02    0.24042E-03   -0.25254E-04  6855   0.593E-02    0.101E-01
RMM:   6    -0.979436479789E+02    0.68791E-04   -0.35374E-04  7255   0.577E-02    0.101E-01
RMM:   7    -0.979435684414E+02    0.79538E-04   -0.65657E-04  7031   0.800E-02    0.794E-02
RMM:   8    -0.979434982911E+02    0.70150E-04   -0.24229E-04  7504   0.518E-02    0.309E-02
RMM:   9    -0.979434806386E+02    0.17652E-04   -0.18787E-05  3754   0.198E-02    0.210E-02
RMM:  10    -0.979434704290E+02    0.10210E-04   -0.11608E-05  3564   0.182E-02    0.137E-02
RMM:  11    -0.979434661598E+02    0.42692E-05   -0.14788E-05  3533   0.136E-02
  51 F= -.97943466E+02 E0= -.97866370E+02  d E =-.873462E-03
 curvature: -28.57 expect dE=-0.557E-02 dE for cont linesearch -0.221E-04
 trial: gam= 0.52985 g(F)=  0.195E-03 g(S)=  0.000E+00 ort = 0.295E-04 (trialstep = 0.411E+01)
 search vector abs. value=  0.542E-03
 bond charge predicted
       N       E                     dE             d eps       ncg     rms          rms(c)
DAV:   1    -0.979432855010E+02    0.18493E-03   -0.49209E-01  6800   0.215E+00    0.866E-02
RMM:   2    -0.979441875230E+02   -0.90202E-03   -0.91577E-03  6837   0.364E-01    0.532E-02
RMM:   3    -0.979446684022E+02   -0.48088E-03   -0.81001E-04  8613   0.109E-01    0.181E-01
RMM:   4    -0.979442175016E+02    0.45090E-03   -0.12673E-04  6746   0.340E-02    0.592E-02
RMM:   5    -0.979441701088E+02    0.47393E-04   -0.38940E-05  4679   0.273E-02    0.398E-02
RMM:   6    -0.979441559620E+02    0.14147E-04   -0.30809E-05  4090   0.239E-02    0.333E-02
RMM:   7    -0.979441470294E+02    0.89326E-05   -0.10132E-04  6710   0.364E-02    0.250E-02
RMM:   8    -0.979441396541E+02    0.73753E-05   -0.24116E-05  3719   0.200E-02
  52 F= -.97944140E+02 E0= -.97867024E+02  d E =-.673494E-03
 ZBRENT: can't locate minimum, use default step
 trial-energy change:   -0.000673  1 .order   -0.000836   -0.000866   -0.000805
 step:  16.4509(harm= 58.2167)  dis= 0.02011  next Energy=   -97.949598 (dE=-0.613E-02)
 bond charge predicted
       N       E                     dE             d eps       ncg     rms          rms(c)
DAV:   1    -0.979367993106E+02    0.73477E-02   -0.44231E+00  6800   0.646E+00    0.264E-01
RMM:   2    -0.979448874560E+02   -0.80881E-02   -0.82693E-02  6835   0.111E+00    0.153E-01
RMM:   3    -0.979462607993E+02   -0.13733E-02   -0.73170E-03  9225   0.310E-01    0.302E-01
RMM:   4    -0.979457897415E+02    0.47106E-03   -0.86607E-04  7600   0.824E-02    0.268E-01
RMM:   5    -0.979448223883E+02    0.96735E-03   -0.35450E-04  6851   0.748E-02    0.114E-01
RMM:   6    -0.979447036139E+02    0.11877E-03   -0.27542E-04  6981   0.554E-02    0.955E-02
RMM:   7    -0.979446126689E+02    0.90945E-04   -0.79572E-04  7012   0.862E-02    0.691E-02
RMM:   8    -0.979445589317E+02    0.53737E-04   -0.19986E-04  7046   0.516E-02    0.355E-02
RMM:   9    -0.979445362530E+02    0.22679E-04   -0.19085E-05  3787   0.179E-02    0.198E-02
RMM:  10    -0.979445294009E+02    0.68521E-05   -0.76988E-06  3560   0.165E-02
  53 F= -.97944529E+02 E0= -.97867368E+02  d E =-.106324E-02
 curvature: -30.27 expect dE=-0.481E-02 dE for cont linesearch -0.619E-06
 trial: gam= 1.01672 g(F)=  0.159E-03 g(S)=  0.000E+00 ort = 0.333E-05 (trialstep = 0.491E+01)
 search vector abs. value=  0.726E-03
 bond charge predicted
       N       E                     dE             d eps       ncg     rms          rms(c)
DAV:   1    -0.979435111352E+02    0.10251E-02   -0.94605E-01  6800   0.282E+00    0.104E-01
RMM:   2    -0.979449875724E+02   -0.14764E-02   -0.14463E-02  6838   0.491E-01    0.898E-02
RMM:   3    -0.979467092358E+02   -0.17217E-02   -0.19320E-03  9442   0.145E-01    0.328E-01
RMM:   4    -0.979450567448E+02    0.16525E-02   -0.31270E-04  7214   0.543E-02    0.818E-02
RMM:   5    -0.979449638232E+02    0.92922E-04   -0.78541E-05  6226   0.319E-02    0.491E-02
RMM:   6    -0.979449453730E+02    0.18450E-04   -0.89983E-05  6702   0.318E-02    0.463E-02
RMM:   7    -0.979449268451E+02    0.18528E-04   -0.13815E-04  6841   0.365E-02    0.320E-02
RMM:   8    -0.979449160593E+02    0.10786E-04   -0.44151E-05  4869   0.238E-02    0.141E-02
RMM:   9    -0.979449133721E+02    0.26872E-05   -0.90563E-06  3546   0.182E-02
  54 F= -.97944913E+02 E0= -.97867689E+02  d E =-.383971E-03
 trial-energy change:   -0.000384  1 .order   -0.000621   -0.000797   -0.000446
 step:  11.1382(harm= 11.1382)  dis= 0.01808  next Energy=   -97.945433 (dE=-0.904E-03)
 bond charge predicted
       N       E                     dE             d eps       ncg     rms          rms(c)
DAV:   1    -0.979424645585E+02    0.24515E-02   -0.15182E+00  6800   0.358E+00    0.131E-01
RMM:   2    -0.979447751340E+02   -0.23106E-02   -0.23177E-02  6838   0.625E-01    0.101E-01
RMM:   3    -0.979472523866E+02   -0.24773E-02   -0.30207E-03  9468   0.181E-01    0.388E-01
RMM:   4    -0.979449561806E+02    0.22962E-02   -0.45803E-04  7306   0.627E-02    0.111E-01
RMM:   5    -0.979447874057E+02    0.16877E-03   -0.13081E-04  6887   0.426E-02    0.628E-02
RMM:   6    -0.979447543758E+02    0.33030E-04   -0.12245E-04  6887   0.361E-02    0.583E-02
RMM:   7    -0.979447190912E+02    0.35285E-04   -0.23287E-04  6935   0.471E-02    0.398E-02
RMM:   8    -0.979447053614E+02    0.13730E-04   -0.86729E-05  6615   0.311E-02    0.173E-02
RMM:   9    -0.979447007206E+02    0.46407E-05   -0.72161E-06  3571   0.128E-02
  55 F= -.97944701E+02 E0= -.97867388E+02  d E =-.171320E-03
 curvature: -24.92 expect dE=-0.640E-02 dE for cont linesearch -0.479E-04
 trial: gam= 0.00000 g(F)=  0.257E-03 g(S)=  0.000E+00 ort =-0.374E-04 (trialstep = 0.616E+01)
 search vector abs. value=  0.257E-03
 bond charge predicted
       N       E                     dE             d eps       ncg     rms          rms(c)
DAV:   1    -0.979443293529E+02    0.37601E-03   -0.55763E-01  6800   0.201E+00    0.893E-02
RMM:   2    -0.979450687521E+02   -0.73940E-03   -0.84754E-03  6820   0.343E-01    0.734E-02
RMM:   3    -0.979450892585E+02   -0.20506E-04   -0.78962E-04  7810   0.120E-01    0.537E-02
RMM:   4    -0.979451625906E+02   -0.73332E-04   -0.15719E-04  7331   0.379E-02    0.874E-02
RMM:   5    -0.979452020231E+02   -0.39433E-04   -0.68718E-05  5929   0.256E-02    0.105E-01
RMM:   6    -0.979450416408E+02    0.16038E-03   -0.48333E-05  5256   0.256E-02    0.307E-02
RMM:   7    -0.979450403158E+02    0.13250E-05   -0.89407E-05  6640   0.342E-02
  56 F= -.97945040E+02 E0= -.97867853E+02  d E =-.339595E-03
 trial-energy change:   -0.000340  1 .order   -0.000371   -0.001582    0.000840
 step:   4.0223(harm=  4.0223)  dis= 0.00279  next Energy=   -97.945217 (dE=-0.517E-03)
 bond charge predicted
       N       E                     dE             d eps       ncg     rms          rms(c)
DAV:   1    -0.979451215490E+02   -0.79908E-04   -0.67230E-02  6920   0.699E-01    0.284E-02
RMM:   2    -0.979452275358E+02   -0.10599E-03   -0.98906E-04  6806   0.119E-01    0.408E-02
RMM:   3    -0.979453186571E+02   -0.91121E-04   -0.11405E-04  6862   0.434E-02    0.849E-02
RMM:   4    -0.979452123385E+02    0.10632E-03   -0.22282E-05  3868   0.177E-02    0.216E-02
RMM:   5    -0.979452069910E+02    0.53475E-05   -0.12025E-05  3483   0.212E-02
  57 F= -.97945207E+02 E0= -.97867983E+02  d E =-.506270E-03
 curvature:  -2.01 expect dE=-0.123E-03 dE for cont linesearch -0.370E-06
 trial: gam= 0.21097 g(F)=  0.611E-04 g(S)=  0.000E+00 ort = 0.687E-05 (trialstep = 0.573E+01)
 search vector abs. value=  0.754E-04
 bond charge predicted
       N       E                     dE             d eps       ncg     rms          rms(c)
DAV:   1    -0.979452056409E+02    0.66976E-05   -0.13479E-01  6800   0.113E+00    0.565E-02
RMM:   2    -0.979456281438E+02   -0.42250E-03   -0.26884E-03  6833   0.195E-01    0.108E-01
RMM:   3    -0.979456851879E+02   -0.57044E-04   -0.29192E-04  8124   0.617E-02    0.122E-01
RMM:   4    -0.979454543570E+02    0.23083E-03   -0.69716E-05  5965   0.321E-02    0.310E-02
RMM:   5    -0.979454428212E+02    0.11536E-04   -0.14897E-05  3717   0.182E-02    0.239E-02
RMM:   6    -0.979454375637E+02    0.52575E-05   -0.12095E-05  3627   0.169E-02
  58 F= -.97945438E+02 E0= -.97868213E+02  d E =-.230573E-03
 trial-energy change:   -0.000231  1 .order   -0.000266   -0.000358   -0.000173
 step:  11.1063(harm= 11.1063)  dis= 0.00611  next Energy=   -97.945554 (dE=-0.347E-03)
 bond charge predicted
       N       E                     dE             d eps       ncg     rms          rms(c)
DAV:   1    -0.979453219515E+02    0.12087E-03   -0.11858E-01  6800   0.106E+00    0.533E-02
RMM:   2    -0.979455805066E+02   -0.25856E-03   -0.23076E-03  6834   0.180E-01    0.581E-02
RMM:   3    -0.979459018421E+02   -0.32134E-03   -0.26549E-04  7696   0.641E-02    0.152E-01
RMM:   4    -0.979455721689E+02    0.32967E-03   -0.88471E-05  6622   0.315E-02    0.527E-02
RMM:   5    -0.979455293306E+02    0.42838E-04   -0.19860E-05  3882   0.194E-02    0.224E-02
RMM:   6    -0.979455274270E+02    0.19037E-05   -0.13253E-05  3633   0.191E-02
  59 F= -.97945527E+02 E0= -.97868315E+02  d E =-.320436E-03
 curvature:  -6.70 expect dE=-0.417E-03 dE for cont linesearch -0.640E-05
 trial: gam= 0.84558 g(F)=  0.623E-04 g(S)=  0.000E+00 ort = 0.849E-05 (trialstep = 0.393E+01)
 search vector abs. value=  0.131E-03
 bond charge predicted
       N       E                     dE             d eps       ncg     rms          rms(c)
DAV:   1    -0.979455440213E+02   -0.14691E-04   -0.11054E-01  6800   0.991E-01    0.442E-02
RMM:   2    -0.979458340321E+02   -0.29001E-03   -0.19831E-03  6837   0.173E-01    0.822E-02
RMM:   3    -0.979458762578E+02   -0.42226E-04   -0.23288E-04  7959   0.563E-02    0.976E-02
RMM:   4    -0.979457525253E+02    0.12373E-03   -0.66868E-05  6074   0.312E-02    0.427E-02
RMM:   5    -0.979457265828E+02    0.25942E-04   -0.13286E-05  3700   0.177E-02    0.199E-02
RMM:   6    -0.979457234242E+02    0.31586E-05   -0.90054E-06  3553   0.155E-02
  60 F= -.97945723E+02 E0= -.97868527E+02  d E =-.195997E-03
 trial-energy change:   -0.000196  1 .order   -0.000202   -0.000273   -0.000131
 step:   7.5747(harm=  7.5747)  dis= 0.00437  next Energy=   -97.945791 (dE=-0.263E-03)
 bond charge predicted
       N       E                     dE             d eps       ncg     rms          rms(c)
DAV:   1    -0.979456301401E+02    0.96443E-04   -0.95259E-02  6800   0.920E-01    0.417E-02
RMM:   2    -0.979459003778E+02   -0.27024E-03   -0.17041E-03  6837   0.160E-01    0.847E-02
RMM:   3    -0.979458805863E+02    0.19792E-04   -0.19063E-04  7672   0.509E-02    0.778E-02
RMM:   4    -0.979458001552E+02    0.80431E-04   -0.52850E-05  5514   0.297E-02    0.333E-02
RMM:   5    -0.979457834841E+02    0.16671E-04   -0.12161E-05  3644   0.191E-02    0.156E-02
RMM:   6    -0.979457848745E+02   -0.13904E-05   -0.12051E-05  3585   0.152E-02
  61 F= -.97945785E+02 E0= -.97868582E+02  d E =-.257447E-03
 curvature:  -7.12 expect dE=-0.244E-03 dE for cont linesearch -0.617E-05
 trial: gam= 0.35146 g(F)=  0.343E-04 g(S)=  0.000E+00 ort = 0.106E-04 (trialstep = 0.466E+01)
 search vector abs. value=  0.579E-04
 bond charge predicted
       N       E                     dE             d eps       ncg     rms          rms(c)
DAV:   1    -0.979457855947E+02   -0.21106E-05   -0.70374E-02  6800   0.725E-01    0.291E-02
RMM:   2    -0.979459303153E+02   -0.14472E-03   -0.10394E-03  6825   0.132E-01    0.571E-02
RMM:   3    -0.979459757494E+02   -0.45434E-04   -0.14905E-04  7505   0.428E-02    0.774E-02
RMM:   4    -0.979458944839E+02    0.81266E-04   -0.24501E-05  3974   0.208E-02    0.279E-02
RMM:   5    -0.979458847673E+02    0.97166E-05   -0.12236E-05  3520   0.212E-02
  62 F= -.97945885E+02 E0= -.97868706E+02  d E =-.998928E-04
 trial-energy change:   -0.000100  1 .order   -0.000113   -0.000177   -0.000048
 step:   6.4011(harm=  6.4011)  dis= 0.00221  next Energy=   -97.945907 (dE=-0.122E-03)
 bond charge predicted
       N       E                     dE             d eps       ncg     rms          rms(c)
DAV:   1    -0.979458770069E+02    0.17477E-04   -0.99853E-03  6840   0.274E-01    0.175E-02
RMM:   2    -0.979459342152E+02   -0.57208E-04   -0.14467E-04  6720   0.503E-02    0.559E-02
RMM:   3    -0.979459094033E+02    0.24812E-04   -0.19674E-05  3755   0.170E-02    0.366E-02
RMM:   4    -0.979458889244E+02    0.20479E-04   -0.82447E-06  3507   0.148E-02    0.124E-02
RMM:   5    -0.979458880064E+02    0.91801E-06   -0.43333E-06  3470   0.993E-03
  63 F= -.97945888E+02 E0= -.97868729E+02  d E =-.103132E-03
 curvature:  -4.87 expect dE=-0.158E-03 dE for cont linesearch -0.170E-06
 trial: gam= 0.99816 g(F)=  0.323E-04 g(S)=  0.000E+00 ort =-0.142E-05 (trialstep = 0.332E+01)
 search vector abs. value=  0.872E-04
 bond charge predicted
       N       E                     dE             d eps       ncg     rms          rms(c)
DAV:   1    -0.979458927338E+02   -0.38094E-05   -0.53431E-02  6800   0.668E-01    0.250E-02
RMM:   2    -0.979459916575E+02   -0.98924E-04   -0.81609E-04  6831   0.117E-01    0.367E-02
RMM:   3    -0.979460372366E+02   -0.45579E-04   -0.90951E-05  6581   0.362E-02    0.636E-02
RMM:   4    -0.979459817881E+02    0.55448E-04   -0.17822E-05  3777   0.197E-02    0.256E-02
RMM:   5    -0.979459730890E+02    0.86992E-05   -0.79133E-06  3470   0.177E-02
  64 F= -.97945973E+02 E0= -.97868804E+02  d E =-.850826E-04
 ZBRENT: can't locate minimum, use default step
 trial-energy change:   -0.000085  1 .order   -0.000092   -0.000103   -0.000080
 step:  13.2991(harm= 15.2724)  dis= 0.00508  next Energy=   -97.946124 (dE=-0.236E-03)
 bond charge predicted
       N       E                     dE             d eps       ncg     rms          rms(c)
DAV:   1    -0.979454371955E+02    0.54459E-03   -0.48052E-01  6800   0.200E+00    0.707E-02
RMM:   2    -0.979461718326E+02   -0.73464E-03   -0.71907E-03  6837   0.352E-01    0.593E-02
RMM:   3    -0.979469108746E+02   -0.73904E-03   -0.85510E-04  9046   0.104E-01    0.219E-01
RMM:   4    -0.979461764096E+02    0.73447E-03   -0.12495E-04  6889   0.343E-02    0.429E-02
RMM:   5    -0.979461509941E+02    0.25415E-04   -0.34552E-05  4337   0.248E-02    0.372E-02
RMM:   6    -0.979461355456E+02    0.15448E-04   -0.13638E-04  6767   0.396E-02    0.289E-02
RMM:   7    -0.979461311676E+02    0.43780E-05   -0.61127E-05  6093   0.258E-02
  65 F= -.97946131E+02 E0= -.97868949E+02  d E =-.243161E-03
 curvature: -20.94 expect dE=-0.129E-02 dE for cont linesearch -0.322E-04
 trial: gam= 0.00000 g(F)=  0.615E-04 g(S)=  0.000E+00 ort = 0.116E-04 (trialstep = 0.532E+01)
 search vector abs. value=  0.615E-04
 bond charge predicted
       N       E                     dE             d eps       ncg     rms          rms(c)
DAV:   1    -0.979460969388E+02    0.38607E-04   -0.96244E-02  6800   0.926E-01    0.409E-02
RMM:   2    -0.979462901371E+02   -0.19320E-03   -0.18621E-03  6832   0.159E-01    0.469E-02
RMM:   3    -0.979462892384E+02    0.89866E-06   -0.17792E-04  7025   0.590E-02    0.401E-02
RMM:   4    -0.979463622565E+02   -0.73018E-04   -0.39930E-05  4750   0.210E-02    0.808E-02
RMM:   5    -0.979462646813E+02    0.97575E-04   -0.14120E-05  3700   0.195E-02    0.163E-02
RMM:   6    -0.979462631669E+02    0.15145E-05   -0.12417E-05  3583   0.158E-02
  66 F= -.97946263E+02 E0= -.97869057E+02  d E =-.131999E-03
 trial-energy change:   -0.000132  1 .order   -0.000151   -0.000327    0.000025
 step:   4.9492(harm=  4.9492)  dis= 0.00241  next Energy=   -97.946283 (dE=-0.152E-03)
 bond charge predicted
       N       E                     dE             d eps       ncg     rms          rms(c)
DAV:   1    -0.979462595652E+02    0.51162E-05   -0.48437E-04  7760   0.754E-02    0.965E-03
RMM:   2    -0.979462676369E+02   -0.80717E-05   -0.26403E-05  3916   0.231E-02
  67 F= -.97946268E+02 E0= -.97869071E+02  d E =-.136469E-03
 curvature:  -2.47 expect dE=-0.903E-04 dE for cont linesearch -0.108E-05
 trial: gam= 0.50876 g(F)=  0.365E-04 g(S)=  0.000E+00 ort = 0.519E-05 (trialstep = 0.525E+01)
 search vector abs. value=  0.577E-04
 bond charge predicted
       N       E                     dE             d eps       ncg     rms          rms(c)
DAV:   1    -0.979462368488E+02    0.22716E-04   -0.86266E-02  6800   0.890E-01    0.357E-02
RMM:   2    -0.979464009790E+02   -0.16413E-03   -0.16610E-03  6835   0.164E-01    0.288E-02
RMM:   3    -0.979464446214E+02   -0.43642E-04   -0.16603E-04  7261   0.460E-02    0.568E-02
RMM:   4    -0.979464423778E+02    0.22436E-05   -0.25814E-05  4140   0.193E-02
  68 F= -.97946442E+02 E0= -.97869266E+02  d E =-.174741E-03
 trial-energy change:   -0.000175  1 .order   -0.000132   -0.000205   -0.000059
 step:   5.9475(harm=  7.3407)  dis= 0.00251  next Energy=   -97.946446 (dE=-0.179E-03)
 bond charge predicted
       N       E                     dE             d eps       ncg     rms          rms(c)
DAV:   1    -0.979463990662E+02    0.45555E-04   -0.18090E-03  6840   0.144E-01    0.167E-02
RMM:   2    -0.979464613311E+02   -0.62265E-04   -0.67440E-05  6041   0.302E-02    0.612E-02
RMM:   3    -0.979464127553E+02    0.48576E-04   -0.12009E-05  3660   0.162E-02    0.314E-02
RMM:   4    -0.979463999544E+02    0.12801E-04   -0.76419E-06  3607   0.140E-02    0.140E-02
RMM:   5    -0.979463976790E+02    0.22754E-05   -0.45349E-06  3454   0.101E-02
  69 F= -.97946398E+02 E0= -.97869182E+02  d E =-.130042E-03
 curvature:  -3.02 expect dE=-0.653E-04 dE for cont linesearch -0.477E-05
 trial: gam= 0.29737 g(F)=  0.216E-04 g(S)=  0.000E+00 ort = 0.955E-05 (trialstep = 0.539E+01)
 search vector abs. value=  0.324E-04
 bond charge predicted
       N       E                     dE             d eps       ncg     rms          rms(c)
DAV:   1    -0.979463614406E+02    0.38514E-04   -0.51359E-02  6800   0.698E-01    0.311E-02
RMM:   2    -0.979466560882E+02   -0.29465E-03   -0.11175E-03  6833   0.123E-01    0.108E-01
RMM:   3    -0.979464902946E+02    0.16579E-03   -0.10067E-04  6605   0.375E-02    0.407E-02
RMM:   4    -0.979464675137E+02    0.22781E-04   -0.21429E-05  3882   0.219E-02    0.209E-02
RMM:   5    -0.979464623779E+02    0.51358E-05   -0.82904E-06  3514   0.188E-02
  70 F= -.97946462E+02 E0= -.97869263E+02  d E =-.646989E-04
 trial-energy change:   -0.000065  1 .order   -0.000081   -0.000132   -0.000030
 step:   6.9550(harm=  6.9550)  dis= 0.00267  next Energy=   -97.946483 (dE=-0.851E-04)
 bond charge predicted
       N       E                     dE             d eps       ncg     rms          rms(c)
DAV:   1    -0.979464588347E+02    0.86790E-05   -0.44175E-03  6800   0.206E-01    0.139E-02
RMM:   2    -0.979464908521E+02   -0.32017E-04   -0.10185E-04  5917   0.373E-02    0.384E-02
RMM:   3    -0.979464848717E+02    0.59804E-05   -0.13832E-05  3683   0.186E-02
  71 F= -.97946485E+02 E0= -.97869261E+02  d E =-.871927E-04
 curvature:  -4.61 expect dE=-0.956E-04 dE for cont linesearch -0.175E-06
 trial: gam= 1.00828 g(F)=  0.208E-04 g(S)=  0.000E+00 ort = 0.111E-05 (trialstep = 0.330E+01)
 search vector abs. value=  0.559E-04
 reached required accuracy - stopping structural energy minimisation
 writing wavefunctions
