 running on   35 total cores
 distrk:  each k-point on   35 cores,    1 groups
 distr:  one band on    1 cores,   35 groups
 using from now: INCAR     
 vasp.5.4.1 24Jun15 (build Oct 26 2018 17:15:27) complex                        
  
 POSCAR found type information on POSCAR  Pt
 POSCAR found :  1 types and       7 ions
 scaLAPACK will be used

 ----------------------------------------------------------------------------- 
|                                                                             |
|           W    W    AA    RRRRR   N    N  II  N    N   GGGG   !!!           |
|           W    W   A  A   R    R  NN   N  II  NN   N  G    G  !!!           |
|           W    W  A    A  R    R  N N  N  II  N N  N  G       !!!           |
|           W WW W  AAAAAA  RRRRR   N  N N  II  N  N N  G  GGG   !            |
|           WW  WW  A    A  R   R   N   NN  II  N   NN  G    G                |
|           W    W  A    A  R    R  N    N  II  N    N   GGGG   !!!           |
|                                                                             |
|      For optimal performance we recommend to set                            |
|        NCORE= 4 - approx SQRT( number of cores)                             |
|      NCORE specifies how many cores store one orbital (NPAR=cpu/NCORE).     |
|      This setting can  greatly improve the performance of VASP for DFT.     |
|      The default, NPAR=number of cores might be grossly inefficient         |
|      on modern multi-core architectures or massively parallel machines.     |
|      Do your own testing !!!!                                               |
|      Unfortunately you need to use the default for GW and RPA calculations. |
|      (for HF NCORE is supported but not extensively tested yet)             |
|                                                                             |
 ----------------------------------------------------------------------------- 


 ----------------------------------------------------------------------------- 
|                                                                             |
|  ADVICE TO THIS USER RUNNING 'VASP/VAMP'   (HEAR YOUR MASTER'S VOICE ...):  |
|                                                                             |
|      You have a (more or less) 'small supercell' and for smaller cells      |
|      it is recommended  to use the reciprocal-space projection scheme!      |
|      The real space optimization is not  efficient for small cells and it   |
|      is also less accurate ...                                              |
|      Therefore set LREAL=.FALSE. in the  INCAR file                         |
|                                                                             |
 ----------------------------------------------------------------------------- 

 LDA part: xc-table for Ceperly-Alder, standard interpolation
 POSCAR, INCAR and KPOINTS ok, starting setup
 WARNING: small aliasing (wrap around) errors must be expected
 FFT: planning ...
 WAVECAR not read
 entering main loop
       N       E                     dE             d eps       ncg     rms          rms(c)
DAV:   1     0.596993299812E+03    0.59699E+03   -0.29199E+04  5040   0.872E+02
DAV:   2    -0.235353089589E+02   -0.62053E+03   -0.49081E+03  5040   0.262E+02
DAV:   3    -0.428189527860E+02   -0.19284E+02   -0.19051E+02  7560   0.511E+01
DAV:   4    -0.430480080866E+02   -0.22906E+00   -0.22900E+00  5950   0.576E+00
DAV:   5    -0.430544764745E+02   -0.64684E-02   -0.64683E-02  7525   0.915E-01    0.989E+00
DAV:   6    -0.490804088982E+02   -0.60259E+01   -0.46421E+01  7700   0.329E+01    0.168E+01
DAV:   7    -0.421647920067E+02    0.69156E+01   -0.24547E+01  8050   0.297E+01    0.825E+00
DAV:   8    -0.438283689138E+02   -0.16636E+01   -0.21260E+01  8715   0.203E+01    0.124E+01
DAV:   9    -0.437761869521E+02    0.52182E-01   -0.31257E+01  8820   0.209E+01    0.120E+01
DAV:  10    -0.406489254912E+02    0.31273E+01   -0.95087E+00  8400   0.121E+01    0.279E+00
DAV:  11    -0.405777420883E+02    0.71183E-01   -0.36518E-01  7525   0.290E+00    0.215E+00
DAV:  12    -0.405444634642E+02    0.33279E-01   -0.35391E-01  8680   0.222E+00    0.178E+00
DAV:  13    -0.405389053539E+02    0.55581E-02   -0.53655E-01  8610   0.269E+00    0.174E+00
DAV:  14    -0.404994692902E+02    0.39436E-01   -0.41777E-01  8470   0.262E+00    0.960E-01
DAV:  15    -0.404856941939E+02    0.13775E-01   -0.98294E-02  8225   0.135E+00    0.347E-01
DAV:  16    -0.404855112828E+02    0.18291E-03   -0.10693E-02  7875   0.445E-01    0.419E-01
DAV:  17    -0.404842434937E+02    0.12678E-02   -0.22497E-02  7455   0.421E-01    0.188E-01
DAV:  18    -0.404843948457E+02   -0.15135E-03   -0.11314E-03  8435   0.118E-01    0.254E-01
DAV:  19    -0.404838637352E+02    0.53111E-03   -0.31009E-03  6300   0.162E-01    0.480E-02
DAV:  20    -0.404840154435E+02   -0.15171E-03   -0.24676E-03  6125   0.118E-01    0.148E-01
DAV:  21    -0.404839999530E+02    0.15491E-04   -0.55416E-03  6545   0.172E-01    0.136E-01
DAV:  22    -0.404839167728E+02    0.83180E-04   -0.26517E-04  5530   0.410E-02    0.758E-02
DAV:  23    -0.404838878152E+02    0.28958E-04   -0.30192E-04  4865   0.390E-02    0.109E-02
DAV:  24    -0.404839159994E+02   -0.28184E-04   -0.54236E-05  5285   0.172E-02    0.156E-02
DAV:  25    -0.404839384476E+02   -0.22448E-04   -0.57862E-06  4900   0.105E-02    0.104E-02
DAV:  26    -0.404839461594E+02   -0.77118E-05   -0.31028E-06  5250   0.437E-03
   1 F= -.40483946E+02 E0= -.40483546E+02  d E =-.404839E+02
 curvature:   0.00 expect dE= 0.000E+00 dE for cont linesearch  0.000E+00
 trial: gam= 0.00000 g(F)=  0.164E-02 g(S)=  0.000E+00 ort = 0.000E+00 (trialstep = 0.100E+01)
 search vector abs. value=  0.164E-02
 bond charge predicted
       N       E                     dE             d eps       ncg     rms          rms(c)
DAV:   1    -0.404854585804E+02   -0.15201E-02   -0.92197E-02  5460   0.770E-01    0.589E-02
DAV:   2    -0.405415227584E+02   -0.56064E-01   -0.43954E-01  9835   0.173E+00    0.221E+00
DAV:   3    -0.404875499278E+02    0.53973E-01   -0.37510E-01  9660   0.159E+00    0.264E-01
DAV:   4    -0.404856638883E+02    0.18860E-02   -0.55760E-03  7875   0.354E-01    0.904E-02
DAV:   5    -0.404858347831E+02   -0.17089E-03   -0.28126E-03  8680   0.194E-01    0.168E-01
DAV:   6    -0.404855415912E+02    0.29319E-03   -0.21917E-03  7280   0.143E-01    0.161E-02
DAV:   7    -0.404855306897E+02    0.10902E-04   -0.25494E-05  5635   0.274E-02    0.117E-02
DAV:   8    -0.404855300248E+02    0.66496E-06   -0.13699E-05  5355   0.261E-02
   2 F= -.40485530E+02 E0= -.40485151E+02  d E =-.158387E-02
 ZBRENT: can't locate minimum, use default step
 trial-energy change:   -0.001584  1 .order   -0.001585   -0.001638   -0.001532
 step:   4.0000(harm= 15.3739)  dis= 0.00990  next Energy=   -40.496540 (dE=-0.126E-01)
 bond charge predicted
       N       E                     dE             d eps       ncg     rms          rms(c)
DAV:   1    -0.404886554875E+02   -0.31248E-02   -0.82872E-01  5040   0.231E+00    0.182E-01
DAV:   2    -0.409259495460E+02   -0.43729E+00   -0.31895E+00  9695   0.527E+00    0.522E+00
DAV:   3    -0.405029795531E+02    0.42297E+00   -0.22118E+00  9695   0.455E+00    0.833E-01
DAV:   4    -0.404901665047E+02    0.12813E-01   -0.41252E-02  8050   0.101E+00    0.216E-01
DAV:   5    -0.404912511724E+02   -0.10847E-02   -0.19580E-02  8645   0.508E-01    0.409E-01
DAV:   6    -0.404894237912E+02    0.18274E-02   -0.17260E-02  8155   0.380E-01    0.905E-02
DAV:   7    -0.404893476213E+02    0.76170E-04   -0.24353E-04  8400   0.849E-02    0.658E-02
DAV:   8    -0.404893144871E+02    0.33134E-04   -0.52318E-04  6580   0.902E-02    0.400E-02
DAV:   9    -0.404893321191E+02   -0.17632E-04   -0.19043E-04  6335   0.588E-02    0.660E-02
DAV:  10    -0.404893131399E+02    0.18979E-04   -0.46249E-05  5845   0.374E-02    0.461E-02
DAV:  11    -0.404892943423E+02    0.18798E-04   -0.17964E-04  6160   0.330E-02    0.595E-03
DAV:  12    -0.404892945962E+02   -0.25392E-06   -0.51795E-06  5600   0.103E-02
   3 F= -.40489295E+02 E0= -.40488951E+02  d E =-.534844E-02
 curvature:  -2.87 expect dE=-0.201E-02 dE for cont linesearch -0.193E-02
 ZBRENT: increasing intervall
 opt :  10.0000  next Energy=   -40.492696 (dE=-0.875E-02)
 bond charge predicted
       N       E                     dE             d eps       ncg     rms          rms(c)
DAV:   1    -0.404886123756E+02    0.68197E-03   -0.33148E+00  5040   0.460E+00    0.355E-01
DAV:   2    -0.417832204343E+02   -0.12946E+01   -0.90079E+00  9695   0.978E+00    0.772E+00
DAV:   3    -0.405406189135E+02    0.12426E+01   -0.52947E+00  9695   0.808E+00    0.173E+00
DAV:   4    -0.404939022753E+02    0.46717E-01   -0.16668E-01  8365   0.199E+00    0.363E-01
DAV:   5    -0.404948601325E+02   -0.95786E-03   -0.30255E-02  8785   0.779E-01    0.501E-01
DAV:   6    -0.404919808634E+02    0.28793E-02   -0.36054E-02  8260   0.561E-01    0.207E-01
DAV:   7    -0.404916900925E+02    0.29077E-03   -0.80627E-04  8015   0.134E-01    0.136E-01
DAV:   8    -0.404916836124E+02    0.64801E-05   -0.40766E-03  8715   0.205E-01    0.130E-01
DAV:   9    -0.404918746854E+02   -0.19107E-03   -0.11423E-03  8645   0.133E-01    0.212E-01
DAV:  10    -0.404915533477E+02    0.32134E-03   -0.11628E-03  6405   0.897E-02    0.867E-02
DAV:  11    -0.404914806069E+02    0.72741E-04   -0.88252E-04  6230   0.733E-02    0.251E-02
DAV:  12    -0.404914755864E+02    0.50205E-05   -0.45604E-05  4655   0.230E-02
   4 F= -.40491476E+02 E0= -.40491116E+02  d E =-.752943E-02
 curvature:  -5.06 expect dE=-0.200E-02 dE for cont linesearch -0.125E-03
 ZBRENT: bracketing found
 ZBRENT: interpolating
 opt :   9.0342  next Energy=   -40.491573 (dE=-0.763E-02)
 bond charge predicted
       N       E                     dE             d eps       ncg     rms          rms(c)
DAV:   1    -0.404915362588E+02   -0.55652E-04   -0.86003E-02  5040   0.737E-01    0.554E-02
DAV:   2    -0.405452043140E+02   -0.53668E-01   -0.41118E-01  9800   0.161E+00    0.219E+00
DAV:   3    -0.404930794894E+02    0.52125E-01   -0.37555E-01  9660   0.158E+00    0.207E-01
DAV:   4    -0.404917998502E+02    0.12796E-02   -0.54395E-03  7560   0.312E-01    0.111E-01
DAV:   5    -0.404918571446E+02   -0.57294E-04   -0.30983E-03  8540   0.199E-01    0.147E-01
DAV:   6    -0.404916096177E+02    0.24753E-03   -0.16544E-03  7210   0.133E-01    0.148E-02
DAV:   7    -0.404916022029E+02    0.74148E-05   -0.28269E-05  5390   0.346E-02
   5 F= -.40491602E+02 E0= -.40491248E+02  d E =-.765604E-02
 curvature:  -3.93 expect dE=-0.119E-02 dE for cont linesearch -0.130E-04
 trial: gam= 0.22904 g(F)=  0.302E-03 g(S)=  0.000E+00 ort =-0.736E-04 (trialstep = 0.261E+01)
 search vector abs. value=  0.354E-03
 bond charge predicted
       N       E                     dE             d eps       ncg     rms          rms(c)
DAV:   1    -0.404921355270E+02   -0.52591E-03   -0.13281E-01  5040   0.922E-01    0.414E-02
DAV:   2    -0.405245879390E+02   -0.32452E-01   -0.26883E-01  9800   0.130E+00    0.167E+00
DAV:   3    -0.404929976478E+02    0.31590E-01   -0.24195E-01  9555   0.123E+00    0.102E-01
DAV:   4    -0.404924724898E+02    0.52516E-03   -0.17263E-03  7560   0.215E-01    0.115E-01
DAV:   5    -0.404922832622E+02    0.18923E-03   -0.72742E-04  8365   0.141E-01    0.340E-02
DAV:   6    -0.404922722506E+02    0.11012E-04   -0.17685E-04  5495   0.578E-02    0.249E-02
DAV:   7    -0.404922676389E+02    0.46117E-05   -0.77487E-05  5285   0.401E-02
   6 F= -.40492268E+02 E0= -.40491924E+02  d E =-.665436E-03
 ZBRENT: can't locate minimum, use default step
 trial-energy change:   -0.000665  1 .order   -0.000659   -0.000742   -0.000576
 step:  10.4274(harm= 11.6519)  dis= 0.01645  next Energy=   -40.493261 (dE=-0.166E-02)
 bond charge predicted
       N       E                     dE             d eps       ncg     rms          rms(c)
DAV:   1    -0.404912813406E+02    0.99091E-03   -0.11951E+00  5040   0.277E+00    0.104E-01
DAV:   2    -0.405854749497E+02   -0.94194E-01   -0.73427E-01  8610   0.233E+00    0.279E+00
DAV:   3    -0.404967692830E+02    0.88706E-01   -0.70482E-01  9205   0.225E+00    0.458E-01
DAV:   4    -0.404928928482E+02    0.38764E-02   -0.13271E-02  7525   0.511E-01    0.159E-01
DAV:   5    -0.404924828816E+02    0.40997E-03   -0.17600E-03  8260   0.195E-01    0.605E-02
DAV:   6    -0.404925231546E+02   -0.40273E-04   -0.92604E-04  8260   0.131E-01    0.986E-02
DAV:   7    -0.404925379598E+02   -0.14805E-04   -0.27978E-03  8155   0.155E-01    0.101E-01
DAV:   8    -0.404924147705E+02    0.12319E-03   -0.73135E-04  7980   0.105E-01    0.211E-02
DAV:   9    -0.404924094614E+02    0.53091E-05   -0.60223E-05  6160   0.452E-02
   7 F= -.40492409E+02 E0= -.40492075E+02  d E =-.807259E-03
 curvature:  -7.11 expect dE=-0.127E-02 dE for cont linesearch -0.364E-03
 ZBRENT: interpolating
 opt :   7.4666  next Energy=   -40.492609 (dE=-0.101E-02)
 bond charge predicted
       N       E                     dE             d eps       ncg     rms          rms(c)
DAV:   1    -0.404924980901E+02   -0.83320E-04   -0.17151E-01  5040   0.105E+00    0.305E-02
DAV:   2    -0.404998892885E+02   -0.73912E-02   -0.61770E-02  8645   0.602E-01    0.824E-01
DAV:   3    -0.404931228962E+02    0.67664E-02   -0.68865E-02  8855   0.638E-01    0.164E-01
DAV:   4    -0.404926922946E+02    0.43060E-03   -0.19547E-03  7350   0.166E-01    0.389E-02
DAV:   5    -0.404926652445E+02    0.27050E-04   -0.98378E-05  6020   0.474E-02    0.335E-02
DAV:   6    -0.404926574533E+02    0.77912E-05   -0.12538E-04  6020   0.432E-02    0.200E-02
DAV:   7    -0.404926592587E+02   -0.18055E-05   -0.11237E-04  5180   0.473E-02    0.277E-02
DAV:   8    -0.404926496707E+02    0.95881E-05   -0.82045E-05  6335   0.436E-02
   8 F= -.40492650E+02 E0= -.40492314E+02  d E =-.104747E-02
 curvature:  -3.89 expect dE=-0.256E-03 dE for cont linesearch -0.897E-05
 trial: gam= 0.26966 g(F)=  0.659E-04 g(S)=  0.000E+00 ort =-0.286E-04 (trialstep = 0.358E+01)
 search vector abs. value=  0.762E-04
 bond charge predicted
       N       E                     dE             d eps       ncg     rms          rms(c)
DAV:   1    -0.404927953288E+02   -0.13607E-03   -0.53193E-02  5040   0.584E-01    0.202E-02
DAV:   2    -0.404991502520E+02   -0.63549E-02   -0.53852E-02  8260   0.562E-01    0.767E-01
DAV:   3    -0.404930411082E+02    0.61091E-02   -0.56115E-02  9275   0.565E-01    0.767E-02
DAV:   4    -0.404928769298E+02    0.16418E-03   -0.93245E-04  6825   0.945E-02    0.372E-02
DAV:   5    -0.404928544319E+02    0.22498E-04   -0.16578E-04  5530   0.511E-02    0.157E-02
DAV:   6    -0.404928622138E+02   -0.77820E-05   -0.72674E-05  5670   0.371E-02
   9 F= -.40492862E+02 E0= -.40492530E+02  d E =-.212543E-03
 ZBRENT: can't locate minimum, use default step
 trial-energy change:   -0.000213  1 .order   -0.000203   -0.000208   -0.000197
 step:  14.3152(harm= 65.2158)  dis= 0.00924  next Energy=   -40.494548 (dE=-0.190E-02)
 bond charge predicted
       N       E                     dE             d eps       ncg     rms          rms(c)
DAV:   1    -0.404926614488E+02    0.19298E-03   -0.47822E-01  5040   0.175E+00    0.580E-02
DAV:   2    -0.405186312559E+02   -0.25970E-01   -0.21727E-01  8260   0.120E+00    0.149E+00
DAV:   3    -0.404944372745E+02    0.24194E-01   -0.23998E-01  8995   0.122E+00    0.278E-01
DAV:   4    -0.404933050907E+02    0.11322E-02   -0.76845E-03  7560   0.251E-01    0.683E-02
DAV:   5    -0.404932238185E+02    0.81272E-04   -0.58828E-04  8225   0.106E-01    0.532E-02
DAV:   6    -0.404932140836E+02    0.97349E-05   -0.30569E-04  5915   0.884E-02    0.499E-02
DAV:   7    -0.404932062054E+02    0.78782E-05   -0.44177E-04  8435   0.805E-02    0.507E-02
DAV:   8    -0.404931765251E+02    0.29680E-04   -0.10714E-04  5670   0.566E-02    0.190E-02
DAV:   9    -0.404931755653E+02    0.95978E-06   -0.11733E-04  6125   0.314E-02    0.229E-02
DAV:  10    -0.404931722436E+02    0.33217E-05   -0.18091E-05  4935   0.186E-02
  10 F= -.40493172E+02 E0= -.40492839E+02  d E =-.522573E-03
 curvature: -13.58 expect dE=-0.423E-03 dE for cont linesearch -0.346E-04
 trial: gam= 0.15056 g(F)=  0.312E-04 g(S)=  0.000E+00 ort = 0.139E-04 (trialstep = 0.573E+01)
 search vector abs. value=  0.371E-04
 bond charge predicted
       N       E                     dE             d eps       ncg     rms          rms(c)
DAV:   1    -0.404931947806E+02   -0.19215E-04   -0.66529E-02  5040   0.653E-01    0.211E-02
DAV:   2    -0.404983910274E+02   -0.51962E-02   -0.43990E-02  8575   0.502E-01    0.695E-01
DAV:   3    -0.404934089573E+02    0.49821E-02   -0.45047E-02  8890   0.503E-01    0.616E-02
DAV:   4    -0.404933009985E+02    0.10796E-03   -0.50982E-04  6335   0.961E-02    0.468E-02
DAV:   5    -0.404932677880E+02    0.33210E-04   -0.16191E-04  6160   0.669E-02    0.207E-02
DAV:   6    -0.404932633709E+02    0.44171E-05   -0.26422E-05  5950   0.325E-02
  11 F= -.40493263E+02 E0= -.40492921E+02  d E =-.911273E-04
 trial-energy change:   -0.000091  1 .order   -0.000099   -0.000190   -0.000007
 step:   5.9423(harm=  5.9423)  dis= 0.00289  next Energy=   -40.493271 (dE=-0.988E-04)
 bond charge predicted
       N       E                     dE             d eps       ncg     rms          rms(c)
DAV:   1    -0.404932686788E+02   -0.89075E-06   -0.22418E-04  6755   0.435E-02    0.261E-02
DAV:   2    -0.405097618279E+02   -0.16493E-01   -0.13905E-01  9730   0.878E-01    0.119E+00
DAV:   3    -0.404936151575E+02    0.16147E-01   -0.10850E-01  9835   0.841E-01    0.552E-02
DAV:   4    -0.404932922110E+02    0.32295E-03   -0.89655E-04  7945   0.143E-01    0.480E-02
DAV:   5    -0.404932670110E+02    0.25200E-04   -0.23436E-04  5635   0.609E-02    0.198E-02
DAV:   6    -0.404932611968E+02    0.58142E-05   -0.30628E-05  6055   0.288E-02
  12 F= -.40493261E+02 E0= -.40492918E+02  d E =-.889532E-04
 curvature:  -3.31 expect dE=-0.113E-04 dE for cont linesearch -0.152E-06
 trial: gam= 0.18160 g(F)=  0.340E-05 g(S)=  0.000E+00 ort =-0.131E-05 (trialstep = 0.577E+01)
 search vector abs. value=  0.415E-05
 reached required accuracy - stopping structural energy minimisation
 writing wavefunctions
