 vasp.5.4.1 05Feb16 (build Nov 22 2018 20:17:51) complex                        
  
 POSCAR found type information on POSCAR  Pd
 04/POSCAR found :  1 types and      33 ions
 scaLAPACK will be used

 ----------------------------------------------------------------------------- 
|                                                                             |
|           W    W    AA    RRRRR   N    N  II  N    N   GGGG   !!!           |
|           W    W   A  A   R    R  NN   N  II  NN   N  G    G  !!!           |
|           W    W  A    A  R    R  N N  N  II  N N  N  G       !!!           |
|           W WW W  AAAAAA  RRRRR   N  N N  II  N  N N  G  GGG   !            |
|           WW  WW  A    A  R   R   N   NN  II  N   NN  G    G                |
|           W    W  A    A  R    R  N    N  II  N    N   GGGG   !!!           |
|                                                                             |
|      For optimal performance we recommend to set                            |
|        NCORE= 4 - approx SQRT( number of cores)                             |
|      NCORE specifies how many cores store one orbital (NPAR=cpu/NCORE).     |
|      This setting can  greatly improve the performance of VASP for DFT.     |
|      The default, NPAR=number of cores might be grossly inefficient         |
|      on modern multi-core architectures or massively parallel machines.     |
|      Do your own testing !!!!                                               |
|      Unfortunately you need to use the default for GW and RPA calculations. |
|      (for HF NCORE is supported but not extensively tested yet)             |
|                                                                             |
 ----------------------------------------------------------------------------- 

 LDA part: xc-table for Ceperly-Alder, standard interpolation
 POSCAR found type information on POSCAR  Pd
 00/POSCAR found :  1 types and      33 ions
 POSCAR found type information on POSCAR  Pd
 06/POSCAR found :  1 types and      33 ions
 Jacobian:    20.4934437754924     
 POSCAR, INCAR and KPOINTS ok, starting setup
 WARNING: small aliasing (wrap around) errors must be expected
 FFT: planning ...
 WAVECAR not read
 entering main loop
       N       E                     dE             d eps       ncg     rms          rms(c)
DAV:   1     0.285267445060E+04    0.28527E+04   -0.13717E+05 10000   0.138E+03
DAV:   2     0.780393679819E+02   -0.27746E+04   -0.25932E+04 10248   0.415E+02
DAV:   3    -0.150214805295E+03   -0.22825E+03   -0.20506E+03 11640   0.112E+02
DAV:   4    -0.162511571310E+03   -0.12297E+02   -0.11445E+02 11696   0.276E+01
DAV:   5    -0.162792926128E+03   -0.28135E+00   -0.28059E+00 12264   0.375E+00    0.186E+01
RMM:   6    -0.198029365236E+03   -0.35236E+02   -0.75600E+01 10296   0.181E+01    0.351E+01
RMM:   7    -0.181178433576E+03    0.16851E+02   -0.22383E+01 10021   0.112E+01    0.327E+01
RMM:   8    -0.160134046759E+03    0.21044E+02   -0.14596E+01 10028   0.998E+00    0.198E+01
RMM:   9    -0.154528176267E+03    0.56059E+01   -0.55139E+00 10027   0.632E+00    0.622E+00
RMM:  10    -0.154440195228E+03    0.87981E-01   -0.29679E+00 10025   0.454E+00    0.639E+00
RMM:  11    -0.154017331934E+03    0.42286E+00   -0.92451E-01 10065   0.265E+00    0.456E+00
RMM:  12    -0.153887907685E+03    0.12942E+00   -0.44825E-01 10023   0.183E+00    0.351E+00
RMM:  13    -0.153865901317E+03    0.22006E-01   -0.20030E-01 10024   0.125E+00    0.359E+00
RMM:  14    -0.153736058025E+03    0.12984E+00   -0.10613E-01 10031   0.910E-01    0.157E+00
RMM:  15    -0.153727720141E+03    0.83379E-02   -0.64713E-02 10026   0.657E-01    0.154E+00
RMM:  16    -0.153706857424E+03    0.20863E-01   -0.26201E-02 10031   0.442E-01    0.742E-01
RMM:  17    -0.153703969404E+03    0.28880E-02   -0.94098E-03 10030   0.271E-01    0.912E-01
RMM:  18    -0.153697136908E+03    0.68325E-02   -0.34042E-03 10028   0.153E-01    0.390E-01
RMM:  19    -0.153695108249E+03    0.20287E-02   -0.27204E-03 10025   0.139E-01    0.403E-01
RMM:  20    -0.153692387357E+03    0.27209E-02   -0.27301E-03 10029   0.145E-01    0.416E-01
RMM:  21    -0.153686943065E+03    0.54443E-02   -0.28075E-03 10029   0.108E-01    0.402E-01
RMM:  22    -0.153684171038E+03    0.27720E-02   -0.11283E-03 10358   0.668E-02    0.137E-01
RMM:  23    -0.153681777083E+03    0.23940E-02   -0.10204E-03 10030   0.637E-02    0.129E-01
RMM:  24    -0.153680300141E+03    0.14769E-02   -0.70300E-04 10088   0.465E-02    0.864E-02
RMM:  25    -0.153680065859E+03    0.23428E-03   -0.39212E-04 10001   0.378E-02    0.959E-02
RMM:  26    -0.153681888780E+03   -0.18229E-02   -0.38984E-04  9989   0.445E-02    0.861E-02
RMM:  27    -0.153684521659E+03   -0.26329E-02   -0.31564E-04  9968   0.352E-02    0.334E-01
RMM:  28    -0.153684402370E+03    0.11929E-03   -0.18071E-04  9844   0.257E-02    0.846E-02
RMM:  29    -0.153686080426E+03   -0.16781E-02   -0.34144E-04  8880   0.252E-02    0.182E-01
RMM:  30    -0.153686883234E+03   -0.80281E-03   -0.17917E-04  8300   0.172E-02    0.256E-01
RMM:  31    -0.153687226538E+03   -0.34330E-03   -0.67052E-05  7476   0.137E-02    0.264E-01
RMM:  32    -0.153686932591E+03    0.29395E-03   -0.13707E-05  5863   0.793E-03    0.170E-01
RMM:  33    -0.153686824098E+03    0.10849E-03   -0.14780E-05  5854   0.825E-03    0.105E-01
RMM:  34    -0.153686818916E+03    0.51826E-05   -0.18808E-05  6128   0.933E-03
   1 F= -.15368682E+03 E0= -.15368374E+03  d E =-.153687E+03
quench:  g(F)=  0.000E+00 g(S)=  0.000E+00 dE (1.order)= 0.000E+00
 bond charge predicted
       N       E                     dE             d eps       ncg     rms          rms(c)
DAV:   1    -0.157392432595E+03   -0.37056E+01   -0.24935E+02 10104   0.272E+01    0.506E+00
RMM:   2    -0.170576912129E+03   -0.13184E+02   -0.59331E+00 10033   0.504E+00    0.361E+01
RMM:   3    -0.158165090466E+03    0.12412E+02   -0.37143E+00 10026   0.424E+00    0.587E+00
RMM:   4    -0.158899925273E+03   -0.73483E+00   -0.90072E-01 10054   0.229E+00    0.102E+01
RMM:   5    -0.157712002654E+03    0.11879E+01   -0.35287E-01 10022   0.150E+00    0.322E+00
RMM:   6    -0.157628273028E+03    0.83730E-01   -0.10829E-01 10020   0.919E-01    0.192E+00
RMM:   7    -0.157602477174E+03    0.25796E-01   -0.44869E-02 10024   0.537E-01    0.148E+00
RMM:   8    -0.157579042668E+03    0.23435E-01   -0.27686E-02 10041   0.403E-01    0.955E-01
RMM:   9    -0.157571512672E+03    0.75300E-02   -0.17772E-02 10024   0.310E-01    0.845E-01
RMM:  10    -0.157566927062E+03    0.45856E-02   -0.12140E-02 10190   0.242E-01    0.669E-01
RMM:  11    -0.157562962551E+03    0.39645E-02   -0.45114E-03 10079   0.156E-01    0.362E-01
RMM:  12    -0.157561895203E+03    0.10673E-02   -0.15263E-03 10036   0.989E-02    0.286E-01
RMM:  13    -0.157560587585E+03    0.13076E-02   -0.94225E-04 10020   0.736E-02    0.172E-01
RMM:  14    -0.157560318615E+03    0.26897E-03   -0.54984E-04 10020   0.598E-02    0.138E-01
RMM:  15    -0.157560162628E+03    0.15599E-03   -0.25419E-04  9999   0.381E-02    0.839E-02
RMM:  16    -0.157560110056E+03    0.52572E-04   -0.73267E-05  8704   0.214E-02    0.475E-02
RMM:  17    -0.157560137874E+03   -0.27818E-04   -0.43661E-05  7147   0.158E-02    0.423E-02
RMM:  18    -0.157560181836E+03   -0.43962E-04   -0.51306E-05  7345   0.164E-02    0.212E-02
RMM:  19    -0.157560210405E+03   -0.28569E-04   -0.16600E-05  5807   0.104E-02    0.204E-02
RMM:  20    -0.157560242757E+03   -0.32352E-04   -0.91015E-06  5622   0.849E-03    0.149E-02
RMM:  21    -0.157560266399E+03   -0.23642E-04   -0.61326E-06  5598   0.668E-03    0.122E-02
RMM:  22    -0.157560298058E+03   -0.31660E-04   -0.70330E-06  5680   0.532E-03    0.105E-02
RMM:  23    -0.157560309902E+03   -0.11844E-04   -0.35068E-06  5252   0.393E-03    0.963E-03
RMM:  24    -0.157560322191E+03   -0.12288E-04   -0.38744E-06  4738   0.371E-03    0.915E-03
RMM:  25    -0.157560326572E+03   -0.43815E-05   -0.28990E-06  4566   0.315E-03
   2 F= -.15756033E+03 E0= -.15755768E+03  d E =-.387351E+01
quench:  g(F)=  0.000E+00 g(S)=  0.000E+00 dE (1.order)= 0.000E+00
 bond charge predicted
       N       E                     dE             d eps       ncg     rms          rms(c)
DAV:   1    -0.157750789735E+03   -0.19047E+00   -0.25083E+02 10024   0.307E+01    0.401E+00
RMM:   2    -0.162988045056E+03   -0.52373E+01   -0.84735E+00 11296   0.639E+00    0.331E+01
RMM:   3    -0.158813794345E+03    0.41743E+01   -0.22629E+00 10460   0.341E+00    0.390E+00
RMM:   4    -0.159846992438E+03   -0.10332E+01   -0.58555E-01 10078   0.182E+00    0.105E+01
RMM:   5    -0.158632730793E+03    0.12143E+01   -0.22542E-01 10035   0.115E+00    0.286E+00
RMM:   6    -0.158574471443E+03    0.58259E-01   -0.62896E-02 10027   0.684E-01    0.226E+00
RMM:   7    -0.158541376010E+03    0.33095E-01   -0.59274E-02 10028   0.584E-01    0.210E+00
RMM:   8    -0.158502199178E+03    0.39177E-01   -0.53837E-02 10097   0.489E-01    0.135E+00
RMM:   9    -0.158491184389E+03    0.11015E-01   -0.27673E-02 10624   0.349E-01    0.103E+00
RMM:  10    -0.158484119024E+03    0.70654E-02   -0.75759E-03 10509   0.189E-01    0.811E-01
RMM:  11    -0.158481772769E+03    0.23463E-02   -0.18543E-03 10057   0.104E-01    0.720E-01
RMM:  12    -0.158479113023E+03    0.26597E-02   -0.11896E-03 10034   0.835E-02    0.643E-01
RMM:  13    -0.158475247482E+03    0.38655E-02   -0.12546E-03 10029   0.786E-02    0.424E-01
RMM:  14    -0.158474116458E+03    0.11310E-02   -0.55709E-04 10057   0.502E-02    0.357E-01
RMM:  15    -0.158472664831E+03    0.14516E-02   -0.60744E-04  9994   0.472E-02    0.214E-01
RMM:  16    -0.158472214755E+03    0.45008E-03   -0.29934E-04  9962   0.355E-02    0.142E-01
RMM:  17    -0.158471931994E+03    0.28276E-03   -0.46454E-04  9930   0.405E-02    0.726E-02
RMM:  18    -0.158471875393E+03    0.56601E-04   -0.26035E-04 10079   0.306E-02    0.194E-02
RMM:  19    -0.158471884596E+03   -0.92036E-05   -0.46574E-05  7134   0.153E-02
   3 F= -.15847188E+03 E0= -.15846949E+03  d E =-.911558E+00
quench:  g(F)=  0.000E+00 g(S)=  0.000E+00 dE (1.order)= 0.000E+00
 bond charge predicted
       N       E                     dE             d eps       ncg     rms          rms(c)
DAV:   1    -0.158268965158E+03    0.20291E+00   -0.12526E+02 10128   0.234E+01    0.220E+00
RMM:   2    -0.159486280242E+03   -0.12173E+01   -0.46253E+00 10069   0.558E+00    0.137E+01
RMM:   3    -0.158855045785E+03    0.63123E+00   -0.11468E+00 13359   0.209E+00    0.390E+00
RMM:   4    -0.158989160017E+03   -0.13411E+00   -0.22606E-01 10036   0.124E+00    0.550E+00
RMM:   5    -0.158686547452E+03    0.30261E+00   -0.86764E-02 10034   0.780E-01    0.182E+00
RMM:   6    -0.158658380769E+03    0.28167E-01   -0.24144E-02 10032   0.430E-01    0.128E+00
RMM:   7    -0.158646834189E+03    0.11547E-01   -0.15002E-02 10132   0.276E-01    0.103E+00
RMM:   8    -0.158633491986E+03    0.13342E-01   -0.22292E-02 10455   0.303E-01    0.529E-01
RMM:   9    -0.158630959151E+03    0.25328E-02   -0.17028E-02 10604   0.283E-01    0.404E-01
RMM:  10    -0.158629894497E+03    0.10647E-02   -0.11309E-02 12750   0.201E-01    0.249E-01
RMM:  11    -0.158629741140E+03    0.15336E-03   -0.15919E-03 10457   0.991E-02    0.212E-01
RMM:  12    -0.158629543702E+03    0.19744E-03   -0.70917E-04 10030   0.733E-02    0.160E-01
RMM:  13    -0.158629266733E+03    0.27697E-03   -0.25022E-04 10018   0.448E-02    0.690E-02
RMM:  14    -0.158629223454E+03    0.43279E-04   -0.74999E-05  9447   0.218E-02    0.537E-02
RMM:  15    -0.158629192539E+03    0.30915E-04   -0.10824E-04  9759   0.214E-02    0.369E-02
RMM:  16    -0.158629192255E+03    0.28314E-06   -0.51831E-05  7765   0.163E-02
   4 F= -.15862919E+03 E0= -.15862675E+03  d E =-.157308E+00
quench:  g(F)=  0.000E+00 g(S)=  0.000E+00 dE (1.order)= 0.000E+00
 bond charge predicted
       N       E                     dE             d eps       ncg     rms          rms(c)
DAV:   1    -0.158630562465E+03   -0.13699E-02   -0.67968E+00 10272   0.543E+00    0.459E-01
RMM:   2    -0.158685360537E+03   -0.54798E-01   -0.22170E-01 10042   0.101E+00    0.216E+00
RMM:   3    -0.158666986794E+03    0.18374E-01   -0.37211E-02 11588   0.400E-01    0.142E+00
RMM:   4    -0.158653639609E+03    0.13347E-01   -0.10971E-02 10042   0.266E-01    0.735E-01
RMM:   5    -0.158647748091E+03    0.58915E-02   -0.22494E-03 10031   0.132E-01    0.249E-01
RMM:   6    -0.158647147240E+03    0.60085E-03   -0.40983E-04 10031   0.546E-02    0.189E-01
RMM:   7    -0.158646768943E+03    0.37830E-03   -0.81333E-04 10204   0.603E-02    0.164E-01
RMM:   8    -0.158646358242E+03    0.41070E-03   -0.20467E-03 10485   0.847E-02    0.890E-02
RMM:   9    -0.158646365369E+03   -0.71263E-05   -0.77075E-04 12995   0.546E-02    0.728E-02
RMM:  10    -0.158646343278E+03    0.22091E-04   -0.12118E-04 10324   0.275E-02    0.497E-02
RMM:  11    -0.158646318614E+03    0.24664E-04   -0.23278E-05  5887   0.139E-02    0.333E-02
RMM:  12    -0.158646301893E+03    0.16721E-04   -0.22253E-05  5556   0.132E-02    0.263E-02
RMM:  13    -0.158646292046E+03    0.98471E-05   -0.27251E-05  5741   0.134E-02
   5 F= -.15864629E+03 E0= -.15864385E+03  d E =-.170998E-01
quench:  g(F)=  0.000E+00 g(S)=  0.000E+00 dE (1.order)= 0.000E+00
 bond charge predicted
       N       E                     dE             d eps       ncg     rms          rms(c)
DAV:   1    -0.158648650539E+03   -0.23486E-02   -0.36380E+00 10112   0.394E+00    0.287E-01
RMM:   2    -0.158657884472E+03   -0.92339E-02   -0.10948E-01 10042   0.708E-01    0.245E-01
RMM:   3    -0.158664648442E+03   -0.67640E-02   -0.16320E-02 12840   0.270E-01    0.842E-01
RMM:   4    -0.158660978076E+03    0.36704E-02   -0.21767E-03 10139   0.108E-01    0.535E-01
RMM:   5    -0.158658215292E+03    0.27628E-02   -0.92600E-04 10021   0.819E-02    0.177E-01
RMM:   6    -0.158657961048E+03    0.25424E-03   -0.20312E-04  9996   0.366E-02    0.144E-01
RMM:   7    -0.158657647404E+03    0.31364E-03   -0.41796E-04 10216   0.383E-02    0.104E-01
RMM:   8    -0.158657476507E+03    0.17090E-03   -0.94275E-04 10654   0.570E-02    0.774E-02
RMM:   9    -0.158657520338E+03   -0.43831E-04   -0.84637E-04 12413   0.537E-02    0.735E-02
RMM:  10    -0.158657510035E+03    0.10302E-04   -0.15731E-04 10657   0.282E-02    0.540E-02
RMM:  11    -0.158657481683E+03    0.28353E-04   -0.13467E-05  5491   0.106E-02    0.453E-02
RMM:  12    -0.158657434495E+03    0.47187E-04   -0.73164E-05  8842   0.174E-02    0.249E-02
RMM:  13    -0.158657424418E+03    0.10077E-04   -0.39460E-05  6418   0.134E-02    0.122E-02
RMM:  14    -0.158657423583E+03    0.83518E-06   -0.27246E-05  5435   0.123E-02
   6 F= -.15865742E+03 E0= -.15865497E+03  d E =-.111315E-01
quench:  g(F)=  0.000E+00 g(S)=  0.000E+00 dE (1.order)= 0.000E+00
 bond charge predicted
       N       E                     dE             d eps       ncg     rms          rms(c)
DAV:   1    -0.158658970279E+03   -0.15459E-02   -0.44257E+00 10000   0.432E+00    0.309E-01
RMM:   2    -0.158674394601E+03   -0.15424E-01   -0.13180E-01 10043   0.771E-01    0.726E-01
RMM:   3    -0.158680858925E+03   -0.64643E-02   -0.20509E-02 13726   0.278E-01    0.107E+00
RMM:   4    -0.158673025471E+03    0.78335E-02   -0.36807E-03 10038   0.160E-01    0.490E-01
RMM:   5    -0.158670362224E+03    0.26632E-02   -0.11432E-03 10026   0.959E-02    0.179E-01
RMM:   6    -0.158670120811E+03    0.24141E-03   -0.25578E-04 10032   0.378E-02    0.150E-01
RMM:   7    -0.158669722529E+03    0.39828E-03   -0.12568E-03 10227   0.663E-02    0.118E-01
RMM:   8    -0.158669618213E+03    0.10432E-03   -0.10388E-03 12014   0.571E-02    0.804E-02
RMM:   9    -0.158669641109E+03   -0.22896E-04   -0.47242E-04 12021   0.424E-02    0.601E-02
RMM:  10    -0.158669616298E+03    0.24811E-04   -0.45919E-05  7610   0.179E-02    0.476E-02
RMM:  11    -0.158669577670E+03    0.38628E-04   -0.24295E-05  5550   0.127E-02    0.344E-02
RMM:  12    -0.158669558216E+03    0.19454E-04   -0.34673E-05  6182   0.139E-02    0.208E-02
RMM:  13    -0.158669551457E+03    0.67585E-05   -0.44360E-05  7198   0.144E-02
   7 F= -.15866955E+03 E0= -.15866708E+03  d E =-.121279E-01
quench:  g(F)=  0.000E+00 g(S)=  0.000E+00 dE (1.order)= 0.000E+00
 bond charge predicted
       N       E                     dE             d eps       ncg     rms          rms(c)
DAV:   1    -0.158669098860E+03    0.45936E-03   -0.51780E+00 10000   0.469E+00    0.333E-01
RMM:   2    -0.158682292609E+03   -0.13194E-01   -0.15465E-01 10046   0.843E-01    0.310E-01
RMM:   3    -0.158709722821E+03   -0.27430E-01   -0.23616E-02 12609   0.323E-01    0.173E+00
RMM:   4    -0.158684121465E+03    0.25601E-01   -0.44776E-03 10050   0.162E-01    0.316E-01
RMM:   5    -0.158682577638E+03    0.15438E-02   -0.95732E-04 10020   0.875E-02    0.187E-01
RMM:   6    -0.158682258905E+03    0.31873E-03   -0.34243E-04 10139   0.417E-02    0.166E-01
RMM:   7    -0.158681825846E+03    0.43306E-03   -0.71086E-04 10383   0.495E-02    0.103E-01
RMM:   8    -0.158681749658E+03    0.76188E-04   -0.10819E-03 11329   0.619E-02    0.114E-01
RMM:   9    -0.158681759542E+03   -0.98835E-05   -0.97779E-04 11577   0.596E-02    0.817E-02
RMM:  10    -0.158681743838E+03    0.15704E-04   -0.20187E-04 11370   0.304E-02    0.652E-02
RMM:  11    -0.158681696747E+03    0.47091E-04   -0.20598E-05  5648   0.127E-02    0.537E-02
RMM:  12    -0.158681639072E+03    0.57675E-04   -0.93638E-05  9103   0.199E-02    0.304E-02
RMM:  13    -0.158681625446E+03    0.13627E-04   -0.51094E-05  7324   0.148E-02    0.170E-02
RMM:  14    -0.158681622884E+03    0.25615E-05   -0.71381E-05  9023   0.165E-02
   8 F= -.15868162E+03 E0= -.15867913E+03  d E =-.120714E-01
quench:  g(F)=  0.000E+00 g(S)=  0.000E+00 dE (1.order)= 0.000E+00
 bond charge predicted
       N       E                     dE             d eps       ncg     rms          rms(c)
DAV:   1    -0.158677789572E+03    0.38359E-02   -0.42516E+00 10000   0.426E+00    0.325E-01
RMM:   2    -0.158704904253E+03   -0.27115E-01   -0.13198E-01 10044   0.773E-01    0.137E+00
RMM:   3    -0.158696639471E+03    0.82648E-02   -0.20752E-02 13171   0.281E-01    0.904E-01
RMM:   4    -0.158691809726E+03    0.48297E-02   -0.48997E-03 10034   0.186E-01    0.543E-01
RMM:   5    -0.158688614171E+03    0.31956E-02   -0.11325E-03 10025   0.975E-02    0.176E-01
RMM:   6    -0.158688353381E+03    0.26079E-03   -0.23952E-04 10012   0.384E-02    0.143E-01
RMM:   7    -0.158688075610E+03    0.27777E-03   -0.84408E-04 10389   0.574E-02    0.129E-01
RMM:   8    -0.158687886362E+03    0.18925E-03   -0.11253E-03 10771   0.614E-02    0.820E-02
RMM:   9    -0.158687877117E+03    0.92453E-05   -0.42118E-04 12692   0.405E-02    0.566E-02
RMM:  10    -0.158687856701E+03    0.20416E-04   -0.52796E-05  8000   0.185E-02    0.360E-02
RMM:  11    -0.158687843521E+03    0.13180E-04   -0.10414E-05  5372   0.105E-02    0.297E-02
RMM:  12    -0.158687825023E+03    0.18498E-04   -0.23707E-05  5518   0.115E-02    0.174E-02
RMM:  13    -0.158687821568E+03    0.34554E-05   -0.14123E-05  5226   0.102E-02
   9 F= -.15868782E+03 E0= -.15868532E+03  d E =-.619868E-02
quench:  g(F)=  0.000E+00 g(S)=  0.000E+00 dE (1.order)= 0.000E+00
 bond charge predicted
       N       E                     dE             d eps       ncg     rms          rms(c)
DAV:   1    -0.158689092566E+03   -0.12675E-02   -0.80874E-01 10096   0.186E+00    0.158E-01
RMM:   2    -0.158692770461E+03   -0.36779E-02   -0.25886E-02 10041   0.354E-01    0.413E-01
RMM:   3    -0.158694712896E+03   -0.19424E-02   -0.48595E-03 12701   0.134E-01    0.611E-01
RMM:   4    -0.158691865478E+03    0.28474E-02   -0.10322E-03 10045   0.808E-02    0.251E-01
RMM:   5    -0.158691155978E+03    0.70950E-03   -0.28260E-04 10016   0.455E-02    0.818E-02
RMM:   6    -0.158691092813E+03    0.63165E-04   -0.49811E-05  7613   0.183E-02    0.663E-02
RMM:   7    -0.158691052754E+03    0.40059E-04   -0.77858E-05  9181   0.200E-02    0.598E-02
RMM:   8    -0.158690994913E+03    0.57841E-04   -0.27635E-04 10263   0.315E-02    0.349E-02
RMM:   9    -0.158690997312E+03   -0.23991E-05   -0.12162E-04 10329   0.221E-02    0.298E-02
RMM:  10    -0.158690991217E+03    0.60950E-05   -0.23156E-05  5565   0.116E-02
  10 F= -.15869099E+03 E0= -.15868847E+03  d E =-.316965E-02
quench:  g(F)=  0.000E+00 g(S)=  0.000E+00 dE (1.order)= 0.000E+00
 bond charge predicted
       N       E                     dE             d eps       ncg     rms          rms(c)
DAV:   1    -0.158691996861E+03   -0.99955E-03   -0.40365E-01 10248   0.131E+00    0.109E-01
RMM:   2    -0.158695271847E+03   -0.32750E-02   -0.13125E-02 10053   0.240E-01    0.498E-01
RMM:   3    -0.158693674122E+03    0.15977E-02   -0.20283E-03 12771   0.844E-02    0.250E-01
RMM:   4    -0.158693325051E+03    0.34907E-03   -0.52645E-04 10005   0.619E-02    0.170E-01
RMM:   5    -0.158693015267E+03    0.30978E-03   -0.12504E-04  9908   0.332E-02    0.512E-02
RMM:   6    -0.158692990151E+03    0.25116E-04   -0.19057E-05  5673   0.121E-02    0.415E-02
RMM:   7    -0.158692964349E+03    0.25802E-04   -0.91982E-05  9316   0.204E-02    0.363E-02
RMM:   8    -0.158692950372E+03    0.13977E-04   -0.98537E-05  9769   0.196E-02    0.210E-02
RMM:   9    -0.158692949939E+03    0.43275E-06   -0.29296E-05  5849   0.126E-02
  11 F= -.15869295E+03 E0= -.15869042E+03  d E =-.195872E-02
quench:  g(F)=  0.000E+00 g(S)=  0.000E+00 dE (1.order)= 0.000E+00
 bond charge predicted
       N       E                     dE             d eps       ncg     rms          rms(c)
DAV:   1    -0.158694271580E+03   -0.13212E-02   -0.59306E-01 10048   0.159E+00    0.128E-01
RMM:   2    -0.158697608970E+03   -0.33374E-02   -0.18885E-02 10047   0.288E-01    0.455E-01
RMM:   3    -0.158696730516E+03    0.87845E-03   -0.28764E-03 13651   0.100E-01    0.309E-01
RMM:   4    -0.158696194358E+03    0.53616E-03   -0.60969E-04 10010   0.675E-02    0.196E-01
RMM:   5    -0.158695784266E+03    0.41009E-03   -0.17613E-04  9966   0.392E-02    0.608E-02
RMM:   6    -0.158695750356E+03    0.33910E-04   -0.30753E-05  6365   0.143E-02    0.509E-02
RMM:   7    -0.158695709366E+03    0.40991E-04   -0.16295E-04 10483   0.260E-02    0.435E-02
RMM:   8    -0.158695694384E+03    0.14982E-04   -0.11499E-04 10051   0.209E-02    0.289E-02
RMM:   9    -0.158695693354E+03    0.10303E-05   -0.50455E-05  7924   0.150E-02
  12 F= -.15869569E+03 E0= -.15869316E+03  d E =-.274341E-02
quench:  g(F)=  0.000E+00 g(S)=  0.000E+00 dE (1.order)= 0.000E+00
 bond charge predicted
       N       E                     dE             d eps       ncg     rms          rms(c)
DAV:   1    -0.158696042175E+03   -0.34779E-03   -0.81294E-01 10024   0.186E+00    0.150E-01
RMM:   2    -0.158701152956E+03   -0.51108E-02   -0.26158E-02 10050   0.337E-01    0.581E-01
RMM:   3    -0.158699173604E+03    0.19794E-02   -0.39343E-03 13558   0.117E-01    0.320E-01
RMM:   4    -0.158698568187E+03    0.60542E-03   -0.73083E-04 10020   0.742E-02    0.206E-01
RMM:   5    -0.158698119527E+03    0.44866E-03   -0.21288E-04  9990   0.431E-02    0.706E-02
RMM:   6    -0.158698073889E+03    0.45638E-04   -0.42909E-05  7350   0.164E-02    0.581E-02
RMM:   7    -0.158698019541E+03    0.54348E-04   -0.19187E-04 10361   0.279E-02    0.493E-02
RMM:   8    -0.158698000987E+03    0.18553E-04   -0.15064E-04 10696   0.232E-02    0.353E-02
RMM:   9    -0.158697997866E+03    0.31216E-05   -0.63534E-05  8870   0.166E-02
  13 F= -.15869800E+03 E0= -.15869545E+03  d E =-.230451E-02
quench:  g(F)=  0.000E+00 g(S)=  0.000E+00 dE (1.order)= 0.000E+00
 bond charge predicted
       N       E                     dE             d eps       ncg     rms          rms(c)
DAV:   1    -0.158698139531E+03   -0.13854E-03   -0.10391E+00 10024   0.210E+00    0.168E-01
RMM:   2    -0.158703747184E+03   -0.56077E-02   -0.33158E-02 10051   0.378E-01    0.578E-01
RMM:   3    -0.158702270489E+03    0.14767E-02   -0.49805E-03 13660   0.133E-01    0.386E-01
RMM:   4    -0.158701267625E+03    0.10029E-02   -0.82385E-04 10023   0.790E-02    0.211E-01
RMM:   5    -0.158700800488E+03    0.46714E-03   -0.23940E-04 10008   0.456E-02    0.795E-02
RMM:   6    -0.158700743738E+03    0.56750E-04   -0.54865E-05  8134   0.178E-02    0.657E-02
RMM:   7    -0.158700672293E+03    0.71445E-04   -0.24359E-04 10317   0.307E-02    0.543E-02
RMM:   8    -0.158700653379E+03    0.18914E-04   -0.20025E-04 11478   0.260E-02    0.416E-02
RMM:   9    -0.158700649298E+03    0.40813E-05   -0.74869E-05  9474   0.183E-02
  14 F= -.15870065E+03 E0= -.15869809E+03  d E =-.265143E-02
quench:  g(F)=  0.000E+00 g(S)=  0.000E+00 dE (1.order)= 0.000E+00
 bond charge predicted
       N       E                     dE             d eps       ncg     rms          rms(c)
DAV:   1    -0.158700167687E+03    0.48569E-03   -0.12132E+00 10016   0.227E+00    0.182E-01
RMM:   2    -0.158708032779E+03   -0.78651E-02   -0.39076E-02 10051   0.411E-01    0.726E-01
RMM:   3    -0.158704727096E+03    0.33057E-02   -0.58259E-03 13463   0.144E-01    0.374E-01
RMM:   4    -0.158703886342E+03    0.84075E-03   -0.10585E-03 10025   0.897E-02    0.243E-01
RMM:   5    -0.158703272361E+03    0.61398E-03   -0.30103E-04 10011   0.514E-02    0.857E-02
RMM:   6    -0.158703203879E+03    0.68482E-04   -0.65689E-05  8684   0.197E-02    0.700E-02
RMM:   7    -0.158703123051E+03    0.80827E-04   -0.26337E-04 10336   0.316E-02    0.594E-02
RMM:   8    -0.158703098200E+03    0.24852E-04   -0.22580E-04 11621   0.275E-02    0.456E-02
RMM:   9    -0.158703091389E+03    0.68102E-05   -0.84942E-05  9723   0.195E-02
  15 F= -.15870309E+03 E0= -.15870052E+03  d E =-.244209E-02
quench:  g(F)=  0.000E+00 g(S)=  0.000E+00 dE (1.order)= 0.000E+00
 bond charge predicted
       N       E                     dE             d eps       ncg     rms          rms(c)
DAV:   1    -0.158702468568E+03    0.62963E-03   -0.11416E+00 10000   0.221E+00    0.178E-01
RMM:   2    -0.158713917738E+03   -0.11449E-01   -0.38332E-02 10053   0.408E-01    0.953E-01
RMM:   3    -0.158706537492E+03    0.73802E-02   -0.57343E-03 12693   0.146E-01    0.298E-01
RMM:   4    -0.158705847362E+03    0.69013E-03   -0.10787E-03 10026   0.900E-02    0.201E-01
RMM:   5    -0.158705425304E+03    0.42206E-03   -0.24954E-04 10021   0.466E-02    0.874E-02
RMM:   6    -0.158705359635E+03    0.65669E-04   -0.49164E-05  7779   0.180E-02    0.704E-02
RMM:   7    -0.158705277349E+03    0.82285E-04   -0.20165E-04 10523   0.286E-02    0.556E-02
RMM:   8    -0.158705244565E+03    0.32785E-04   -0.22072E-04 11451   0.277E-02    0.418E-02
RMM:   9    -0.158705239085E+03    0.54801E-05   -0.92622E-05  9809   0.201E-02
  16 F= -.15870524E+03 E0= -.15870266E+03  d E =-.214770E-02
quench:  g(F)=  0.000E+00 g(S)=  0.000E+00 dE (1.order)= 0.000E+00
 bond charge predicted
       N       E                     dE             d eps       ncg     rms          rms(c)
DAV:   1    -0.158705167852E+03    0.76712E-04   -0.48145E-01 10200   0.145E+00    0.112E-01
RMM:   2    -0.158708072778E+03   -0.29049E-02   -0.15742E-02 10051   0.269E-01    0.423E-01
RMM:   3    -0.158707275376E+03    0.79740E-03   -0.23620E-03 13755   0.934E-02    0.295E-01
RMM:   4    -0.158706690804E+03    0.58457E-03   -0.59034E-04 10008   0.659E-02    0.158E-01
RMM:   5    -0.158706432424E+03    0.25838E-03   -0.12094E-04  9861   0.321E-02    0.640E-02
RMM:   6    -0.158706395246E+03    0.37178E-04   -0.26109E-05  5789   0.151E-02    0.498E-02
RMM:   7    -0.158706365182E+03    0.30064E-04   -0.51017E-05  7688   0.163E-02    0.394E-02
RMM:   8    -0.158706341407E+03    0.23775E-04   -0.15741E-04 10574   0.248E-02    0.338E-02
RMM:   9    -0.158706338279E+03    0.31274E-05   -0.63433E-05  8960   0.165E-02
  17 F= -.15870634E+03 E0= -.15870374E+03  d E =-.109919E-02
quench:  g(F)=  0.000E+00 g(S)=  0.000E+00 dE (1.order)= 0.000E+00
 bond charge predicted
       N       E                     dE             d eps       ncg     rms          rms(c)
DAV:   1    -0.158706120476E+03    0.22093E-03   -0.17780E-01 10096   0.877E-01    0.842E-02
RMM:   2    -0.158711891166E+03   -0.57707E-02   -0.68815E-03 10053   0.173E-01    0.753E-01
RMM:   3    -0.158706881379E+03    0.50098E-02   -0.12029E-03 10043   0.713E-02    0.128E-01
RMM:   4    -0.158706678254E+03    0.20312E-03   -0.34577E-04 10002   0.489E-02    0.102E-01
RMM:   5    -0.158706562121E+03    0.11613E-03   -0.57224E-05  8425   0.215E-02    0.418E-02
RMM:   6    -0.158706545044E+03    0.17077E-04   -0.12350E-05  5459   0.118E-02    0.293E-02
RMM:   7    -0.158706533159E+03    0.11886E-04   -0.16498E-05  5330   0.107E-02    0.241E-02
RMM:   8    -0.158706522787E+03    0.10371E-04   -0.30396E-05  5868   0.147E-02    0.138E-02
RMM:   9    -0.158706521853E+03    0.93369E-06   -0.24135E-05  5253   0.142E-02
  18 F= -.15870652E+03 E0= -.15870392E+03  d E =-.183574E-03
quench:  g(F)=  0.000E+00 g(S)=  0.000E+00 dE (1.order)= 0.000E+00
 bond charge predicted
       N       E                     dE             d eps       ncg     rms          rms(c)
DAV:   1    -0.158707074169E+03   -0.55138E-03   -0.57800E-02 10192   0.503E-01    0.423E-02
RMM:   2    -0.158707425697E+03   -0.35153E-03   -0.19116E-03 10036   0.949E-02    0.149E-01
RMM:   3    -0.158707412342E+03    0.13355E-04   -0.31560E-04 12875   0.346E-02    0.143E-01
RMM:   4    -0.158707267763E+03    0.14458E-03   -0.91912E-05  9033   0.252E-02    0.636E-02
RMM:   5    -0.158707223309E+03    0.44455E-04   -0.17925E-05  5690   0.135E-02    0.253E-02
RMM:   6    -0.158707217119E+03    0.61896E-05   -0.58135E-06  5192   0.888E-03
  19 F= -.15870722E+03 E0= -.15870461E+03  d E =-.695266E-03
quench:  g(F)=  0.000E+00 g(S)=  0.000E+00 dE (1.order)= 0.000E+00
 bond charge predicted
       N       E                     dE             d eps       ncg     rms          rms(c)
DAV:   1    -0.158707631604E+03   -0.40830E-03   -0.31454E-02 10144   0.372E-01    0.252E-02
RMM:   2    -0.158707865582E+03   -0.23398E-03   -0.94332E-04 10019   0.669E-02    0.130E-01
RMM:   3    -0.158707748528E+03    0.11705E-03   -0.12478E-04 10218   0.226E-02    0.590E-02
RMM:   4    -0.158707714758E+03    0.33770E-04   -0.28842E-05  6077   0.153E-02    0.272E-02
RMM:   5    -0.158707706329E+03    0.84296E-05   -0.90465E-06  5194   0.126E-02
  20 F= -.15870771E+03 E0= -.15870509E+03  d E =-.489209E-03
quench:  g(F)=  0.000E+00 g(S)=  0.000E+00 dE (1.order)= 0.000E+00
 reached required accuracy - stopping structural energy minimisation
 writing wavefunctions
