 running on   20 total cores
 distrk:  each k-point on   20 cores,    1 groups
 distr:  one band on    1 cores,   20 groups
 using from now: INCAR     
 vasp.5.4.1 05Feb16 (build Sep 02 2018 21:45:25) complex                        
  
 POSCAR found type information on POSCAR  Cu
 POSCAR found :  1 types and       4 ions
 scaLAPACK will be used

 ----------------------------------------------------------------------------- 
|                                                                             |
|           W    W    AA    RRRRR   N    N  II  N    N   GGGG   !!!           |
|           W    W   A  A   R    R  NN   N  II  NN   N  G    G  !!!           |
|           W    W  A    A  R    R  N N  N  II  N N  N  G       !!!           |
|           W WW W  AAAAAA  RRRRR   N  N N  II  N  N N  G  GGG   !            |
|           WW  WW  A    A  R   R   N   NN  II  N   NN  G    G                |
|           W    W  A    A  R    R  N    N  II  N    N   GGGG   !!!           |
|                                                                             |
|      For optimal performance we recommend to set                            |
|        NCORE= 4 - approx SQRT( number of cores)                             |
|      NCORE specifies how many cores store one orbital (NPAR=cpu/NCORE).     |
|      This setting can  greatly improve the performance of VASP for DFT.     |
|      The default, NPAR=number of cores might be grossly inefficient         |
|      on modern multi-core architectures or massively parallel machines.     |
|      Do your own testing !!!!                                               |
|      Unfortunately you need to use the default for GW and RPA calculations. |
|      (for HF NCORE is supported but not extensively tested yet)             |
|                                                                             |
 ----------------------------------------------------------------------------- 


 ----------------------------------------------------------------------------- 
|                                                                             |
|  ADVICE TO THIS USER RUNNING 'VASP/VAMP'   (HEAR YOUR MASTER'S VOICE ...):  |
|                                                                             |
|      You have a (more or less) 'small supercell' and for smaller cells      |
|      it is recommended  to use the reciprocal-space projection scheme!      |
|      The real space optimization is not  efficient for small cells and it   |
|      is also less accurate ...                                              |
|      Therefore set LREAL=.FALSE. in the  INCAR file                         |
|                                                                             |
 ----------------------------------------------------------------------------- 

 LDA part: xc-table for Ceperly-Alder, standard interpolation
 POSCAR, INCAR and KPOINTS ok, starting setup
 WARNING: small aliasing (wrap around) errors must be expected
 FFT: planning ...
 WAVECAR not read
 entering main loop
       N       E                     dE             d eps       ncg     rms          rms(c)
DAV:   1     0.205634261514E+03    0.20563E+03   -0.19546E+04  4400   0.112E+03
DAV:   2    -0.831392277819E+01   -0.21395E+03   -0.20097E+03  4940   0.215E+02
DAV:   3    -0.165068026558E+02   -0.81929E+01   -0.81561E+01  5600   0.537E+01
DAV:   4    -0.165582884140E+02   -0.51486E-01   -0.51484E-01  5180   0.528E+00
DAV:   5    -0.165585029515E+02   -0.21454E-03   -0.21454E-03  5580   0.242E-01    0.127E+01
DAV:   6    -0.151792471058E+02    0.13793E+01   -0.22428E+01  5340   0.598E+01    0.662E+00
DAV:   7    -0.137296033670E+02    0.14496E+01   -0.49976E+00  5760   0.283E+01    0.949E-01
DAV:   8    -0.137197374612E+02    0.98659E-02   -0.23811E-01  5780   0.107E+01    0.116E+00
DAV:   9    -0.137041526623E+02    0.15585E-01   -0.22158E-01  5840   0.884E+00    0.769E-01
DAV:  10    -0.136970587766E+02    0.70939E-02   -0.11433E-01  6640   0.600E+00    0.536E-01
DAV:  11    -0.136911201409E+02    0.59386E-02   -0.55365E-02  6320   0.368E+00    0.238E-01
DAV:  12    -0.136890906406E+02    0.20295E-02   -0.14916E-02  6640   0.187E+00    0.875E-02
DAV:  13    -0.136888415771E+02    0.24906E-03   -0.89418E-03  6680   0.155E+00    0.576E-02
DAV:  14    -0.136879251087E+02    0.91647E-03   -0.80249E-03  7380   0.141E+00    0.364E-02
DAV:  15    -0.136877446477E+02    0.18046E-03   -0.28893E-03  6940   0.859E-01    0.259E-02
DAV:  16    -0.136879737054E+02   -0.22906E-03   -0.20369E-03  5980   0.743E-01    0.278E-02
DAV:  17    -0.136883338860E+02   -0.36018E-03   -0.17876E-03  5920   0.651E-01    0.260E-02
DAV:  18    -0.136885044991E+02   -0.17061E-03   -0.72658E-05  5020   0.107E-01    0.232E-02
DAV:  19    -0.136886416008E+02   -0.13710E-03   -0.99699E-04  4180   0.495E-01    0.158E-02
DAV:  20    -0.136886507639E+02   -0.91631E-05   -0.91912E-05  4340   0.185E-01
   1 F= -.13688651E+02 E0= -.13688618E+02  d E =-.136887E+02
 curvature:   0.00 expect dE= 0.000E+00 dE for cont linesearch  0.000E+00
 trial: gam= 0.00000 g(F)=  0.659E-03 g(S)=  0.000E+00 ort = 0.000E+00 (trialstep = 0.100E+01)
 search vector abs. value=  0.659E-03
 bond charge predicted
       N       E                     dE             d eps       ncg     rms          rms(c)
DAV:   1    -0.136892093427E+02   -0.56774E-03   -0.33238E-02  4980   0.815E-01    0.145E-02
DAV:   2    -0.136892290061E+02   -0.19663E-04   -0.21194E-04  6660   0.328E-01    0.185E-02
DAV:   3    -0.136892155168E+02    0.13489E-04   -0.23532E-04  4960   0.339E-01    0.108E-02
DAV:   4    -0.136892124866E+02    0.30301E-05   -0.43060E-05  4600   0.120E-01
   2 F= -.13689212E+02 E0= -.13689182E+02  d E =-.561723E-03
 ZBRENT: can't locate minimum, use default step
 trial-energy change:   -0.000562  1 .order   -0.000645   -0.000659   -0.000632
 step:   4.0000(harm= 24.0251)  dis= 0.00758  next Energy=   -13.696567 (dE=-0.792E-02)
 bond charge predicted
       N       E                     dE             d eps       ncg     rms          rms(c)
DAV:   1    -0.136909417199E+02   -0.17262E-02   -0.29808E-01  4400   0.244E+00    0.378E-02
DAV:   2    -0.136909768035E+02   -0.35084E-04   -0.62328E-04  5660   0.223E-01    0.261E-02
DAV:   3    -0.136909761429E+02    0.66067E-06   -0.11117E-04  5620   0.279E-01    0.231E-02
DAV:   4    -0.136909677883E+02    0.83546E-05   -0.98198E-05  5080   0.289E-01
   3 F= -.13690968E+02 E0= -.13690947E+02  d E =-.231702E-02
 curvature:  -2.93 expect dE=-0.956E-03 dE for cont linesearch -0.951E-03
 ZBRENT: increasing intervall
 opt :  10.0000  next Energy=   -13.692733 (dE=-0.408E-02)
 bond charge predicted
       N       E                     dE             d eps       ncg     rms          rms(c)
DAV:   1    -0.136924872300E+02   -0.15111E-02   -0.11944E+00  4400   0.491E+00    0.737E-02
DAV:   2    -0.136926594571E+02   -0.17223E-03   -0.27238E-03  5780   0.420E-01    0.493E-02
DAV:   3    -0.136926461130E+02    0.13344E-04   -0.26959E-04  5400   0.511E-01    0.441E-02
DAV:   4    -0.136926075551E+02    0.38558E-04   -0.15894E-04  5720   0.433E-01    0.865E-03
DAV:   5    -0.136926086014E+02   -0.10463E-05   -0.10172E-04  4480   0.224E-01    0.927E-03
DAV:   6    -0.136926052516E+02    0.33498E-05   -0.41516E-05  4560   0.158E-01
   4 F= -.13692605E+02 E0= -.13692589E+02  d E =-.395449E-02
 curvature:  -5.43 expect dE=-0.131E-03 dE for cont linesearch -0.949E-04
 ZBRENT: extrapolating
 opt :  11.8109  next Energy=   -13.692702 (dE=-0.405E-02)
 bond charge predicted
       N       E                     dE             d eps       ncg     rms          rms(c)
DAV:   1    -0.136928367855E+02   -0.22818E-03   -0.10876E-01  4400   0.147E+00    0.223E-02
DAV:   2    -0.136928517430E+02   -0.14958E-04   -0.22610E-04  5920   0.156E-01    0.153E-02
DAV:   3    -0.136928539173E+02   -0.21744E-05   -0.70105E-05  5680   0.230E-01
   5 F= -.13692854E+02 E0= -.13692840E+02  d E =-.420315E-02
 curvature:  -5.56 expect dE=-0.460E-04 dE for cont linesearch -0.782E-06
 ZBRENT: extrapolating
 opt :  11.9931  next Energy=   -13.692855 (dE=-0.420E-02)
 bond charge predicted
       N       E                     dE             d eps       ncg     rms          rms(c)
DAV:   1    -0.136928483210E+02    0.34220E-05   -0.11584E-03  6220   0.274E-01    0.810E-03
DAV:   2    -0.136928628467E+02   -0.14526E-04   -0.20772E-04  5340   0.350E-01    0.177E-02
DAV:   3    -0.136928472512E+02    0.15596E-04   -0.10682E-04  4480   0.265E-01    0.351E-03
DAV:   4    -0.136928476607E+02   -0.40948E-06   -0.69121E-06  3120   0.418E-02
   6 F= -.13692848E+02 E0= -.13692833E+02  d E =-.419690E-02
 curvature:  -6.11 expect dE=-0.491E-04 dE for cont linesearch -0.969E-06
 ZBRENT: bracketing found
 ZBRENT: interpolating
 opt :  11.8992  next Energy=   -13.692854 (dE=-0.420E-02)
 bond charge predicted
       N       E                     dE             d eps       ncg     rms          rms(c)
DAV:   1    -0.136928483414E+02   -0.10902E-05   -0.29322E-04  4620   0.797E-02    0.134E-03
DAV:   2    -0.136928484477E+02   -0.10626E-06   -0.13774E-06  3600   0.330E-02
   7 F= -.13692848E+02 E0= -.13692834E+02  d E =-.419768E-02
 curvature:  -2.68 expect dE=-0.228E-04 dE for cont linesearch -0.446E-08
 trial: gam= 0.01448 g(F)=  0.849E-05 g(S)=  0.000E+00 ort =-0.105E-05 (trialstep = 0.318E+01)
 search vector abs. value=  0.860E-05
 bond charge predicted
       N       E                     dE             d eps       ncg     rms          rms(c)
DAV:   1    -0.136928758751E+02   -0.27534E-04   -0.43078E-03  4440   0.290E-01    0.416E-03
DAV:   2    -0.136928762862E+02   -0.41111E-06   -0.62104E-06  4420   0.408E-02
   8 F= -.13692876E+02 E0= -.13692862E+02  d E =-.278385E-04
 ZBRENT: can't locate minimum, use default step
 trial-energy change:   -0.000028  1 .order   -0.000026   -0.000027   -0.000026
 step:  12.7194(harm= 82.5963)  dis= 0.00000  next Energy=   -13.693199 (dE=-0.350E-03)
 bond charge predicted
       N       E                     dE             d eps       ncg     rms          rms(c)
DAV:   1    -0.136929533191E+02   -0.77444E-04   -0.38800E-02  4460   0.874E-01    0.150E-02
DAV:   2    -0.136929582349E+02   -0.49158E-05   -0.10323E-04  5220   0.213E-01    0.157E-02
DAV:   3    -0.136929545993E+02    0.36356E-05   -0.45638E-05  4760   0.179E-01
   9 F= -.13692955E+02 E0= -.13692942E+02  d E =-.106152E-03
 curvature:  -9.46 expect dE=-0.565E-04 dE for cont linesearch -0.540E-04
 ZBRENT: increasing intervall
 opt :  31.7985  next Energy=   -13.693066 (dE=-0.218E-03)
 bond charge predicted
       N       E                     dE             d eps       ncg     rms          rms(c)
DAV:   1    -0.136930693505E+02   -0.11112E-03   -0.15506E-01  4440   0.175E+00    0.287E-02
DAV:   2    -0.136930849459E+02   -0.15595E-04   -0.37054E-04  5580   0.339E-01    0.294E-02
DAV:   3    -0.136930723011E+02    0.12645E-04   -0.80249E-05  5300   0.250E-01    0.151E-02
DAV:   4    -0.136930717233E+02    0.57776E-06   -0.67233E-05  4460   0.223E-01
  10 F= -.13693072E+02 E0= -.13693062E+02  d E =-.223276E-03
 curvature: -19.59 expect dE=-0.508E-04 dE for cont linesearch -0.481E-04
 ZBRENT: increasing intervall
 opt :  69.9566  next Energy=   -13.693155 (dE=-0.307E-03)
 bond charge predicted
       N       E                     dE             d eps       ncg     rms          rms(c)
DAV:   1    -0.136932163645E+02   -0.14406E-03   -0.62030E-01  4440   0.349E+00    0.502E-02
DAV:   2    -0.136932742208E+02   -0.57856E-04   -0.12007E-03  5540   0.525E-01    0.474E-02
DAV:   3    -0.136932504207E+02    0.23800E-04   -0.27211E-04  5580   0.455E-01    0.264E-02
DAV:   4    -0.136932485497E+02    0.18710E-05   -0.36559E-04  4600   0.434E-01    0.202E-02
DAV:   5    -0.136932263942E+02    0.22156E-04   -0.26185E-04  6180   0.380E-01    0.104E-02
DAV:   6    -0.136932255550E+02    0.83917E-06   -0.20712E-05  4720   0.101E-01
  11 F= -.13693226E+02 E0= -.13693215E+02  d E =-.377107E-03
 curvature: -33.94 expect dE=-0.593E-05 dE for cont linesearch -0.376E-05
 trial: gam= 0.00000 g(F)=  0.175E-06 g(S)=  0.000E+00 ort =-0.976E-06 (trialstep = 0.165E+02)
 search vector abs. value=  0.175E-06
 reached required accuracy - stopping structural energy minimisation
