 running on   18 total cores
 distrk:  each k-point on   18 cores,    1 groups
 distr:  one band on    1 cores,   18 groups
 using from now: INCAR     
 vasp.5.4.1 24Jun15 (build Oct 26 2018 17:15:27) complex                        
  
 POSCAR found type information on POSCAR  Pt O  H 
 POSCAR found :  3 types and      14 ions
 scaLAPACK will be used

 ----------------------------------------------------------------------------- 
|                                                                             |
|           W    W    AA    RRRRR   N    N  II  N    N   GGGG   !!!           |
|           W    W   A  A   R    R  NN   N  II  NN   N  G    G  !!!           |
|           W    W  A    A  R    R  N N  N  II  N N  N  G       !!!           |
|           W WW W  AAAAAA  RRRRR   N  N N  II  N  N N  G  GGG   !            |
|           WW  WW  A    A  R   R   N   NN  II  N   NN  G    G                |
|           W    W  A    A  R    R  N    N  II  N    N   GGGG   !!!           |
|                                                                             |
|      For optimal performance we recommend to set                            |
|        NCORE= 4 - approx SQRT( number of cores)                             |
|      NCORE specifies how many cores store one orbital (NPAR=cpu/NCORE).     |
|      This setting can  greatly improve the performance of VASP for DFT.     |
|      The default, NPAR=number of cores might be grossly inefficient         |
|      on modern multi-core architectures or massively parallel machines.     |
|      Do your own testing !!!!                                               |
|      Unfortunately you need to use the default for GW and RPA calculations. |
|      (for HF NCORE is supported but not extensively tested yet)             |
|                                                                             |
 ----------------------------------------------------------------------------- 

 LDA part: xc-table for Ceperly-Alder, standard interpolation
 POSCAR, INCAR and KPOINTS ok, starting setup
 WARNING: small aliasing (wrap around) errors must be expected
 FFT: planning ...
 WAVECAR not read
 entering main loop
       N       E                     dE             d eps       ncg     rms          rms(c)
DAV:   1     0.129053877917E+04    0.12905E+04   -0.51368E+04  7380   0.119E+03
DAV:   2     0.384167371258E+02   -0.12521E+04   -0.11202E+04  7380   0.403E+02
DAV:   3    -0.801081553816E+02   -0.11852E+03   -0.11159E+03  9360   0.111E+02
DAV:   4    -0.846334769226E+02   -0.45253E+01   -0.44812E+01  8676   0.286E+01
DAV:   5    -0.847483116062E+02   -0.11483E+00   -0.11475E+00  8856   0.337E+00    0.162E+01
RMM:   6    -0.815447183602E+02    0.32036E+01   -0.16329E+01  7410   0.178E+01    0.176E+01
RMM:   7    -0.985377066940E+02   -0.16993E+02   -0.10864E+01  7541   0.971E+00    0.216E+01
RMM:   8    -0.832655591535E+02    0.15272E+02   -0.34485E+00  7437   0.629E+00    0.149E+01
RMM:   9    -0.787405489398E+02    0.45250E+01   -0.22076E+00  7415   0.533E+00    0.638E+00
RMM:  10    -0.781100855342E+02    0.63046E+00   -0.78400E-01  7437   0.301E+00    0.446E+00
RMM:  11    -0.777518210958E+02    0.35826E+00   -0.21200E-01  7479   0.144E+00    0.275E+00
RMM:  12    -0.775944519905E+02    0.15737E+00   -0.15822E-01  7455   0.124E+00    0.164E+00
RMM:  13    -0.775697782165E+02    0.24674E-01   -0.14271E-01  7610   0.991E-01    0.201E+00
RMM:  14    -0.775626564383E+02    0.71218E-02   -0.66728E-02  7408   0.994E-01    0.149E+00
RMM:  15    -0.775319010397E+02    0.30755E-01   -0.97599E-03  7398   0.417E-01    0.700E-01
RMM:  16    -0.775263710987E+02    0.55299E-02   -0.40240E-03  7390   0.251E-01    0.399E-01
RMM:  17    -0.775232244789E+02    0.31466E-02   -0.19534E-03  7377   0.164E-01    0.117E-01
RMM:  18    -0.775227417787E+02    0.48270E-03   -0.88870E-04  6248   0.940E-02    0.161E-01
RMM:  19    -0.775217588283E+02    0.98295E-03   -0.84067E-04  6368   0.106E-01    0.160E-01
RMM:  20    -0.775213787303E+02    0.38010E-03   -0.23998E-04  5146   0.564E-02    0.107E-01
RMM:  21    -0.775212329459E+02    0.14578E-03   -0.51543E-04  5825   0.852E-02    0.817E-02
RMM:  22    -0.775215695453E+02   -0.33660E-03   -0.16675E-04  4925   0.501E-02    0.158E-01
RMM:  23    -0.775212472661E+02    0.32228E-03   -0.15613E-04  4921   0.453E-02    0.725E-02
RMM:  24    -0.775212011809E+02    0.46085E-04   -0.11392E-04  4832   0.279E-02
   1 F= -.77521201E+02 E0= -.77441131E+02  d E =-.775212E+02
 curvature:   0.00 expect dE= 0.000E+00 dE for cont linesearch  0.000E+00
 trial: gam= 0.00000 g(F)=  0.523E+00 g(S)=  0.000E+00 ort = 0.000E+00 (trialstep = 0.100E+01)
 search vector abs. value=  0.523E+00
 bond charge predicted
       N       E                     dE             d eps       ncg     rms          rms(c)
DAV:   1    -0.778070245512E+02   -0.28578E+00   -0.29149E+01  8100   0.152E+01    0.186E+00
RMM:   2    -0.815478462212E+02   -0.37408E+01   -0.96763E-01  7403   0.289E+00    0.157E+01
RMM:   3    -0.779752459697E+02    0.35726E+01   -0.47065E-01  7390   0.218E+00    0.355E+00
RMM:   4    -0.778162824326E+02    0.15896E+00   -0.96416E-02  7451   0.109E+00    0.178E+00
RMM:   5    -0.777732928215E+02    0.42990E-01   -0.17865E-02  7429   0.530E-01    0.924E-01
RMM:   6    -0.777584247567E+02    0.14868E-01   -0.95812E-03  7383   0.304E-01    0.435E-01
RMM:   7    -0.777577664393E+02    0.65832E-03   -0.70929E-03  7386   0.276E-01    0.413E-01
RMM:   8    -0.777554739101E+02    0.22925E-02   -0.28049E-03  7393   0.191E-01    0.192E-01
RMM:   9    -0.777553083839E+02    0.16553E-03   -0.83459E-04  6892   0.106E-01    0.142E-01
RMM:  10    -0.777554097665E+02   -0.10138E-03   -0.33208E-04  5291   0.705E-02    0.724E-02
RMM:  11    -0.777555179721E+02   -0.10821E-03   -0.94334E-05  4488   0.489E-02    0.434E-02
RMM:  12    -0.777558250124E+02   -0.30704E-03   -0.10949E-04  4615   0.388E-02    0.138E-02
RMM:  13    -0.777561960979E+02   -0.37109E-03   -0.11559E-04  4730   0.348E-02    0.200E-02
RMM:  14    -0.777563106597E+02   -0.11456E-03   -0.29794E-05  4466   0.218E-02    0.142E-02
RMM:  15    -0.777567204921E+02   -0.40983E-03   -0.59480E-05  4499   0.222E-02    0.124E-01
RMM:  16    -0.777567055984E+02    0.14894E-04   -0.17159E-05  4329   0.178E-02
   2 F= -.77756706E+02 E0= -.77676593E+02  d E =-.235504E+00
 trial-energy change:   -0.235504  1 .order   -0.235515   -0.522692    0.051663
 step:   0.9101(harm=  0.9101)  dis= 0.05269  next Energy=   -77.759039 (dE=-0.238E+00)
 bond charge predicted
       N       E                     dE             d eps       ncg     rms          rms(c)
DAV:   1    -0.777596856812E+02   -0.29652E-02   -0.23889E-01  8658   0.139E+00    0.204E-01
RMM:   2    -0.777704179867E+02   -0.10732E-01   -0.92155E-03  7439   0.293E-01    0.838E-01
RMM:   3    -0.777702166550E+02    0.20133E-03   -0.29134E-03  7410   0.178E-01    0.845E-01
RMM:   4    -0.777596435278E+02    0.10573E-01   -0.16918E-03  7382   0.136E-01    0.106E-01
RMM:   5    -0.777594627513E+02    0.18078E-03   -0.22080E-04  4931   0.594E-02    0.667E-02
RMM:   6    -0.777594180498E+02    0.44701E-04   -0.11119E-04  4464   0.547E-02
   3 F= -.77759418E+02 E0= -.77679164E+02  d E =-.238217E+00
 curvature:  -0.46 expect dE=-0.232E-01 dE for cont linesearch -0.224E-04
 trial: gam= 0.10729 g(F)=  0.510E-01 g(S)=  0.000E+00 ort =-0.508E-02 (trialstep = 0.982E+00)
 search vector abs. value=  0.559E-01
 bond charge predicted
       N       E                     dE             d eps       ncg     rms          rms(c)
DAV:   1    -0.777983411737E+02   -0.38878E-01   -0.14883E+00  8406   0.327E+00    0.235E-01
RMM:   2    -0.778013981822E+02   -0.30570E-02   -0.23022E-02  7382   0.541E-01    0.321E-01
RMM:   3    -0.778064387813E+02   -0.50406E-02   -0.28479E-03  8132   0.182E-01    0.673E-01
RMM:   4    -0.778001638179E+02    0.62750E-02   -0.94869E-04  7207   0.111E-01    0.172E-01
RMM:   5    -0.777998695252E+02    0.29429E-03   -0.54429E-04  6215   0.840E-02    0.917E-02
RMM:   6    -0.777998485488E+02    0.20976E-04   -0.33171E-04  5107   0.744E-02
   4 F= -.77799849E+02 E0= -.77719572E+02  d E =-.404305E-01
 trial-energy change:   -0.040430  1 .order   -0.040567   -0.049551   -0.031583
 step:   2.7081(harm=  2.7081)  dis= 0.04494  next Energy=   -77.827743 (dE=-0.683E-01)
 bond charge predicted
       N       E                     dE             d eps       ncg     rms          rms(c)
DAV:   1    -0.778240955934E+02   -0.24226E-01   -0.45955E+00  8100   0.578E+00    0.401E-01
RMM:   2    -0.778313716297E+02   -0.72760E-02   -0.77715E-02  7390   0.108E+00    0.342E-01
RMM:   3    -0.778413897636E+02   -0.10018E-01   -0.11235E-02  8816   0.336E-01    0.882E-01
RMM:   4    -0.778393448231E+02    0.20449E-02   -0.28793E-03  7505   0.152E-01    0.828E-01
RMM:   5    -0.778302581377E+02    0.90867E-02   -0.21271E-03  7359   0.173E-01    0.195E-01
RMM:   6    -0.778301195277E+02    0.13861E-03   -0.12643E-03  7279   0.124E-01    0.151E-01
RMM:   7    -0.778298736749E+02    0.24585E-03   -0.58989E-04  6418   0.912E-02    0.879E-02
RMM:   8    -0.778297989456E+02    0.74729E-04   -0.11878E-04  4429   0.511E-02
   5 F= -.77829799E+02 E0= -.77749325E+02  d E =-.703809E-01
 curvature:  -1.50 expect dE=-0.175E-01 dE for cont linesearch -0.241E-03
 trial: gam= 0.29075 g(F)=  0.116E-01 g(S)=  0.000E+00 ort = 0.300E-02 (trialstep = 0.133E+01)
 search vector abs. value=  0.181E-01
 bond charge predicted
       N       E                     dE             d eps       ncg     rms          rms(c)
DAV:   1    -0.778410442967E+02   -0.11171E-01   -0.15626E+00  8568   0.375E+00    0.412E-01
RMM:   2    -0.779905299120E+02   -0.14949E+00   -0.48735E-02  7435   0.684E-01    0.354E+00
RMM:   3    -0.778557362192E+02    0.13479E+00   -0.17255E-02  7411   0.448E-01    0.102E+00
RMM:   4    -0.778415994908E+02    0.14137E-01   -0.64328E-03  7414   0.279E-01    0.245E-01
RMM:   5    -0.778410388613E+02    0.56063E-03   -0.10371E-03  7023   0.131E-01    0.158E-01
RMM:   6    -0.778406043396E+02    0.43452E-03   -0.31836E-04  5121   0.684E-02    0.754E-02
RMM:   7    -0.778407037197E+02   -0.99380E-04   -0.26427E-04  5017   0.733E-02
   6 F= -.77840704E+02 E0= -.77760331E+02  d E =-.109048E-01
 trial-energy change:   -0.010905  1 .order   -0.011848   -0.016596   -0.007099
 step:   2.3195(harm=  2.3195)  dis= 0.02291  next Energy=   -77.844300 (dE=-0.145E-01)
 bond charge predicted
       N       E                     dE             d eps       ncg     rms          rms(c)
DAV:   1    -0.778430049449E+02   -0.24006E-02   -0.86940E-01  8370   0.280E+00    0.351E-01
RMM:   2    -0.781105262430E+02   -0.26752E+00   -0.41157E-02  7469   0.617E-01    0.459E+00
RMM:   3    -0.778460461516E+02    0.26448E+00   -0.20306E-02  7416   0.451E-01    0.491E-01
RMM:   4    -0.778431005185E+02    0.29456E-02   -0.42100E-03  7402   0.250E-01    0.257E-01
RMM:   5    -0.778427385561E+02    0.36196E-03   -0.68216E-04  6519   0.109E-01    0.171E-01
RMM:   6    -0.778422730401E+02    0.46552E-03   -0.20827E-04  4715   0.663E-02    0.710E-02
RMM:   7    -0.778425020614E+02   -0.22902E-03   -0.19205E-04  4792   0.623E-02    0.130E-01
RMM:   8    -0.778424041835E+02    0.97878E-04   -0.71334E-05  4397   0.468E-02
   7 F= -.77842404E+02 E0= -.77762225E+02  d E =-.126052E-01
 curvature:  -1.68 expect dE=-0.237E-01 dE for cont linesearch -0.883E-05
 trial: gam= 1.34162 g(F)=  0.141E-01 g(S)=  0.000E+00 ort =-0.309E-03 (trialstep = 0.602E+00)
 search vector abs. value=  0.459E-01
 bond charge predicted
       N       E                     dE             d eps       ncg     rms          rms(c)
DAV:   1    -0.778496998306E+02   -0.71978E-02   -0.59299E-01  8118   0.236E+00    0.131E-01
RMM:   2    -0.778523705084E+02   -0.26707E-02   -0.97814E-03  7384   0.365E-01    0.394E-01
RMM:   3    -0.778521169305E+02    0.25358E-03   -0.10699E-03  7254   0.117E-01    0.336E-01
RMM:   4    -0.778506949909E+02    0.14219E-02   -0.53102E-04  6326   0.839E-02    0.149E-01
RMM:   5    -0.778505063070E+02    0.18868E-03   -0.15395E-04  4546   0.541E-02    0.107E-01
RMM:   6    -0.778503487211E+02    0.15759E-03   -0.12748E-04  4402   0.627E-02    0.490E-02
RMM:   7    -0.778503487346E+02   -0.13453E-07   -0.85522E-05  4435   0.415E-02
   8 F= -.77850349E+02 E0= -.77770145E+02  d E =-.794455E-02
 ZBRENT: can't locate minimum, use default step
 trial-energy change:   -0.007945  1 .order   -0.008274   -0.008249   -0.008298
 step:   2.4086(harm=  2.4086)  dis= 0.02433  next Energy=   -77.875796 (dE=-0.334E-01)
 bond charge predicted
       N       E                     dE             d eps       ncg     rms          rms(c)
DAV:   1    -0.778676813815E+02   -0.17333E-01   -0.53328E+00  7542   0.706E+00    0.381E-01
RMM:   2    -0.778964541001E+02   -0.28773E-01   -0.87626E-02  7395   0.115E+00    0.131E+00
RMM:   3    -0.778800237468E+02    0.16430E-01   -0.97495E-03  8514   0.347E-01    0.627E-01
RMM:   4    -0.778756578967E+02    0.43659E-02   -0.41163E-03  7406   0.238E-01    0.350E-01
RMM:   5    -0.778742478640E+02    0.14100E-02   -0.97453E-04  6993   0.971E-02    0.200E-01
RMM:   6    -0.778740878836E+02    0.15998E-03   -0.88631E-04  7313   0.105E-01    0.184E-01
RMM:   7    -0.778738918729E+02    0.19601E-03   -0.77189E-04  6701   0.957E-02    0.157E-01
RMM:   8    -0.778736049799E+02    0.28689E-03   -0.13007E-04  4478   0.510E-02    0.908E-02
RMM:   9    -0.778735640638E+02    0.40916E-04   -0.53800E-05  4346   0.412E-02
   9 F= -.77873564E+02 E0= -.77793765E+02  d E =-.311599E-01
 curvature:  -6.07 expect dE=-0.101E+00 dE for cont linesearch -0.203E-01
 ZBRENT: increasing intervall
 opt :   6.0214  next Energy=   -77.913392 (dE=-0.710E-01)
 bond charge predicted
       N       E                     dE             d eps       ncg     rms          rms(c)
DAV:   1    -0.778871966280E+02   -0.13592E-01   -0.21372E+01  7380   0.142E+01    0.772E-01
RMM:   2    -0.779280169533E+02   -0.40820E-01   -0.39217E-01  7396   0.254E+00    0.917E-01
RMM:   3    -0.780299402287E+02   -0.10192E+00   -0.36799E-02  8007   0.641E-01    0.278E+00
RMM:   4    -0.779198476923E+02    0.11009E+00   -0.14218E-02  7450   0.437E-01    0.576E-01
RMM:   5    -0.779156675602E+02    0.41801E-02   -0.38240E-03  7399   0.196E-01    0.372E-01
RMM:   6    -0.779155740231E+02    0.93537E-04   -0.28979E-03  7394   0.196E-01    0.351E-01
RMM:   7    -0.779146890836E+02    0.88494E-03   -0.34903E-03  7391   0.203E-01    0.277E-01
RMM:   8    -0.779136595627E+02    0.10295E-02   -0.73924E-04  6595   0.883E-02    0.131E-01
RMM:   9    -0.779134814447E+02    0.17812E-03   -0.13192E-04  4477   0.554E-02    0.483E-02
RMM:  10    -0.779134854925E+02   -0.40477E-05   -0.71485E-05  4406   0.480E-02
  10 F= -.77913485E+02 E0= -.77834668E+02  d E =-.710813E-01
 curvature: -11.88 expect dE=-0.315E+00 dE for cont linesearch -0.250E-01
 ZBRENT: increasing intervall
 opt :  13.2472  next Energy=   -77.965739 (dE=-0.123E+00)
 bond charge predicted
       N       E                     dE             d eps       ncg     rms          rms(c)
DAV:   1    -0.778036066034E+02    0.10987E+00   -0.85337E+01  7380   0.283E+01    0.174E+00
RMM:   2    -0.782625629981E+02   -0.45896E+00   -0.20346E+00  7401   0.589E+00    0.438E+00
RMM:   3    -0.782236157486E+02    0.38947E-01   -0.20679E-01  8206   0.143E+00    0.413E+00
RMM:   4    -0.779536110102E+02    0.27000E+00   -0.62353E-02  7412   0.959E-01    0.976E-01
RMM:   5    -0.779407790867E+02    0.12832E-01   -0.12876E-02  7415   0.406E-01    0.645E-01
RMM:   6    -0.779376114744E+02    0.31676E-02   -0.11168E-02  7418   0.362E-01    0.480E-01
RMM:   7    -0.779380494192E+02   -0.43794E-03   -0.11724E-02  7488   0.353E-01    0.425E-01
RMM:   8    -0.779348866505E+02    0.31628E-02   -0.19509E-03  7371   0.152E-01    0.145E-01
RMM:   9    -0.779346804495E+02    0.20620E-03   -0.44323E-04  6181   0.827E-02    0.959E-02
RMM:  10    -0.779350503502E+02   -0.36990E-03   -0.27174E-04  5075   0.640E-02    0.171E-01
RMM:  11    -0.779348194355E+02    0.23091E-03   -0.15321E-04  4536   0.571E-02    0.997E-02
RMM:  12    -0.779347122721E+02    0.10716E-03   -0.79061E-05  4432   0.478E-02    0.205E-02
RMM:  13    -0.779348271423E+02   -0.11487E-03   -0.52552E-05  4449   0.273E-02    0.652E-02
RMM:  14    -0.779348145427E+02    0.12600E-04   -0.16319E-05  4382   0.183E-02
  11 F= -.77934815E+02 E0= -.77858686E+02  d E =-.924104E-01
 curvature: -24.87 expect dE=-0.186E+01 dE for cont linesearch -0.179E-01
 ZBRENT: bracketing found
 ZBRENT: interpolating
 opt :  10.5778  next Energy=   -77.942491 (dE=-0.100E+00)
 bond charge predicted
       N       E                     dE             d eps       ncg     rms          rms(c)
DAV:   1    -0.779252456934E+02    0.95814E-02   -0.11644E+01  7560   0.105E+01    0.529E-01
RMM:   2    -0.779525943069E+02   -0.27349E-01   -0.20397E-01  7411   0.162E+00    0.891E-01
RMM:   3    -0.779827875218E+02   -0.30193E-01   -0.16366E-02  7566   0.509E-01    0.171E+00
RMM:   4    -0.779440200895E+02    0.38767E-01   -0.57760E-03  7437   0.261E-01    0.492E-01
RMM:   5    -0.779418390131E+02    0.21811E-02   -0.21202E-03  7377   0.180E-01    0.337E-01
RMM:   6    -0.779410519157E+02    0.78710E-03   -0.21811E-03  7372   0.143E-01    0.234E-01
RMM:   7    -0.779410874642E+02   -0.35549E-04   -0.16637E-03  7380   0.149E-01    0.219E-01
RMM:   8    -0.779403481194E+02    0.73934E-03   -0.60573E-04  6773   0.942E-02    0.114E-01
RMM:   9    -0.779401992935E+02    0.14883E-03   -0.11110E-04  4411   0.509E-02    0.567E-02
RMM:  10    -0.779401600742E+02    0.39219E-04   -0.52793E-05  4294   0.422E-02
  12 F= -.77940160E+02 E0= -.77863045E+02  d E =-.977559E-01
 curvature: -10.64 expect dE=-0.546E+00 dE for cont linesearch -0.403E-03
 trial: gam= 3.45756 g(F)=  0.513E-01 g(S)=  0.000E+00 ort = 0.132E-02 (trialstep = 0.196E+00)
 search vector abs. value=  0.609E+00
 bond charge predicted
       N       E                     dE             d eps       ncg     rms          rms(c)
DAV:   1    -0.779498232435E+02   -0.96240E-02   -0.97088E-01  8298   0.304E+00    0.145E-01
RMM:   2    -0.779513683375E+02   -0.15451E-02   -0.16770E-02  7406   0.463E-01    0.122E-01
RMM:   3    -0.779529360194E+02   -0.15677E-02   -0.10657E-03  7172   0.124E-01    0.348E-01
RMM:   4    -0.779512535335E+02    0.16825E-02   -0.21599E-04  4745   0.628E-02    0.102E-01
RMM:   5    -0.779511570721E+02    0.96461E-04   -0.14997E-04  4485   0.643E-02
  13 F= -.77951157E+02 E0= -.77874339E+02  d E =-.109970E-01
 ZBRENT: can't locate minimum, use default step
 trial-energy change:   -0.010997  1 .order   -0.010821   -0.010930   -0.010711
 step:   0.7828(harm=  9.7865)  dis= 0.02667  next Energy=   -78.213443 (dE=-0.273E+00)
 bond charge predicted
       N       E                     dE             d eps       ncg     rms          rms(c)
DAV:   1    -0.779688761662E+02   -0.17623E-01   -0.87119E+00  7380   0.912E+00    0.476E-01
RMM:   2    -0.779898016883E+02   -0.20926E-01   -0.16169E-01  7409   0.145E+00    0.748E-01
RMM:   3    -0.780157932011E+02   -0.25992E-01   -0.12518E-02  7682   0.402E-01    0.152E+00
RMM:   4    -0.779832438778E+02    0.32549E-01   -0.46670E-03  7416   0.249E-01    0.413E-01
RMM:   5    -0.779810672224E+02    0.21767E-02   -0.15873E-03  7373   0.152E-01    0.239E-01
RMM:   6    -0.779803346447E+02    0.73258E-03   -0.12479E-03  7315   0.119E-01    0.138E-01
RMM:   7    -0.779803739375E+02   -0.39293E-04   -0.12927E-03  7334   0.126E-01    0.144E-01
RMM:   8    -0.779800744133E+02    0.29952E-03   -0.25006E-04  4888   0.599E-02    0.592E-02
RMM:   9    -0.779800494796E+02    0.24934E-04   -0.69156E-05  4325   0.486E-02
  14 F= -.77980049E+02 E0= -.77904310E+02  d E =-.398894E-01
 curvature:  -6.33 expect dE=-0.383E+00 dE for cont linesearch -0.213E-01
 ZBRENT: increasing intervall
 opt :   1.9570  next Energy=   -78.022116 (dE=-0.820E-01)
 bond charge predicted
       N       E                     dE             d eps       ncg     rms          rms(c)
DAV:   1    -0.779669262615E+02    0.13148E-01   -0.34815E+01  7380   0.183E+01    0.105E+00
RMM:   2    -0.781495708646E+02   -0.18264E+00   -0.76453E-01  7415   0.322E+00    0.276E+00
RMM:   3    -0.781267714390E+02    0.22799E-01   -0.66291E-02  7782   0.884E-01    0.256E+00
RMM:   4    -0.780269709134E+02    0.99801E-01   -0.20943E-02  7423   0.494E-01    0.720E-01
RMM:   5    -0.780223970331E+02    0.45739E-02   -0.52954E-03  7416   0.283E-01    0.516E-01
RMM:   6    -0.780192951399E+02    0.31019E-02   -0.34676E-03  7393   0.208E-01    0.293E-01
RMM:   7    -0.780207844198E+02   -0.14893E-02   -0.51632E-03  7419   0.253E-01    0.387E-01
RMM:   8    -0.780181965231E+02    0.25879E-02   -0.21586E-03  7386   0.169E-01    0.859E-02
RMM:   9    -0.780181051449E+02    0.91378E-04   -0.13656E-04  4523   0.482E-02
  15 F= -.78018105E+02 E0= -.77944318E+02  d E =-.779451E-01
 curvature: -12.49 expect dE=-0.101E+01 dE for cont linesearch -0.539E-02
 ZBRENT: increasing intervall
 opt :   4.3055  next Energy=   -77.987907 (dE=-0.477E-01)
 bond charge predicted
       N       E                     dE             d eps       ncg     rms          rms(c)
DAV:   1    -0.776666521008E+02    0.35154E+00   -0.13820E+02  7380   0.366E+01    0.257E+00
RMM:   2    -0.789502973905E+02   -0.12836E+01   -0.42731E+00  7418   0.746E+00    0.734E+00
RMM:   3    -0.785734879950E+02    0.37681E+00   -0.40888E-01  7673   0.211E+00    0.600E+00
RMM:   4    -0.779746727503E+02    0.59882E+00   -0.12972E-01  7445   0.115E+00    0.140E+00
RMM:   5    -0.779564113185E+02    0.18261E-01   -0.29111E-02  7418   0.702E-01    0.116E+00
RMM:   6    -0.779400195964E+02    0.16392E-01   -0.11329E-02  7429   0.385E-01    0.653E-01
RMM:   7    -0.779447515808E+02   -0.47320E-02   -0.16271E-02  7422   0.449E-01    0.781E-01
RMM:   8    -0.779353448438E+02    0.94067E-02   -0.13927E-02  7421   0.407E-01    0.249E-01
RMM:   9    -0.779345887253E+02    0.75612E-03   -0.17118E-03  7364   0.166E-01    0.123E-01
RMM:  10    -0.779344266489E+02    0.16208E-03   -0.30799E-04  5215   0.646E-02    0.544E-02
RMM:  11    -0.779345596451E+02   -0.13300E-03   -0.17329E-04  4534   0.612E-02    0.679E-02
RMM:  12    -0.779346278930E+02   -0.68248E-04   -0.11322E-04  4470   0.545E-02
  16 F= -.77934628E+02 E0= -.77864313E+02  d E =0.553218E-02
 curvature:  69.96 expect dE= 0.121E+02 dE for cont linesearch  0.102E+01
 ZBRENT: bracketing found
 ZBRENT: interpolating
 opt :   2.3021  next Energy=   -78.020902 (dE=-0.807E-01)
 bond charge predicted
       N       E                     dE             d eps       ncg     rms          rms(c)
DAV:   1    -0.778363818368E+02    0.98178E-01   -0.10085E+02  7380   0.315E+01    0.158E+00
RMM:   2    -0.784754526240E+02   -0.63907E+00   -0.21784E+00  7432   0.526E+00    0.745E+00
RMM:   3    -0.782112828137E+02    0.26417E+00   -0.22329E-01  7838   0.166E+00    0.358E+00
RMM:   4    -0.780797865841E+02    0.13150E+00   -0.63753E-02  7481   0.781E-01    0.193E+00
RMM:   5    -0.780452605035E+02    0.34526E-01   -0.18166E-02  7412   0.512E-01    0.139E+00
RMM:   6    -0.780445274219E+02    0.73308E-03   -0.13501E-02  7437   0.353E-01    0.130E+00
RMM:   7    -0.780335051514E+02    0.11022E-01   -0.24270E-02  7415   0.539E-01    0.852E-01
RMM:   8    -0.780229772833E+02    0.10528E-01   -0.98256E-03  7437   0.341E-01    0.344E-01
RMM:   9    -0.780219050034E+02    0.10723E-02   -0.16527E-03  7348   0.156E-01    0.212E-01
RMM:  10    -0.780214237003E+02    0.48130E-03   -0.75152E-04  6988   0.104E-01    0.114E-01
RMM:  11    -0.780213454038E+02    0.78296E-04   -0.39797E-04  5630   0.763E-02
  17 F= -.78021345E+02 E0= -.77948061E+02  d E =-.811853E-01
 curvature:  -0.19 expect dE=-0.171E-01 dE for cont linesearch -0.383E-05
 trial: gam= 0.52378 g(F)=  0.888E-01 g(S)=  0.000E+00 ort = 0.348E-02 (trialstep = 0.617E+00)
 search vector abs. value=  0.259E+00
 bond charge predicted
       N       E                     dE             d eps       ncg     rms          rms(c)
DAV:   1    -0.780669249850E+02   -0.45501E-01   -0.43581E+00  7452   0.648E+00    0.290E-01
RMM:   2    -0.780777166001E+02   -0.10792E-01   -0.76514E-02  7422   0.921E-01    0.544E-01
RMM:   3    -0.780781334310E+02   -0.41683E-03   -0.53191E-03  7866   0.309E-01    0.547E-01
RMM:   4    -0.780741718460E+02    0.39616E-02   -0.18296E-03  7374   0.156E-01    0.228E-01
RMM:   5    -0.780735016868E+02    0.67016E-03   -0.38806E-04  5495   0.654E-02    0.126E-01
RMM:   6    -0.780740016381E+02   -0.49995E-03   -0.77985E-04  7068   0.999E-02    0.202E-01
RMM:   7    -0.780733779953E+02    0.62364E-03   -0.58538E-04  6586   0.889E-02    0.758E-02
RMM:   8    -0.780732789264E+02    0.99069E-04   -0.10632E-04  4333   0.451E-02
  18 F= -.78073279E+02 E0= -.78000764E+02  d E =-.519335E-01
 ZBRENT: can't locate minimum, use default step
 trial-energy change:   -0.051934  1 .order   -0.052110   -0.055885   -0.048336
 step:   2.4679(harm=  4.5675)  dis= 0.06374  next Energy=   -78.228202 (dE=-0.207E+00)
 bond charge predicted
       N       E                     dE             d eps       ncg     rms          rms(c)
DAV:   1    -0.781234461387E+02   -0.50068E-01   -0.38867E+01  7380   0.194E+01    0.945E-01
RMM:   2    -0.782001456647E+02   -0.76700E-01   -0.77670E-01  7424   0.328E+00    0.950E-01
RMM:   3    -0.783596754845E+02   -0.15953E+00   -0.69578E-02  8431   0.865E-01    0.329E+00
RMM:   4    -0.781941785020E+02    0.16550E+00   -0.19931E-02  7499   0.464E-01    0.586E-01
RMM:   5    -0.781896499563E+02    0.45285E-02   -0.50285E-03  7404   0.248E-01    0.354E-01
RMM:   6    -0.781895535007E+02    0.96456E-04   -0.72730E-03  7393   0.269E-01    0.294E-01
RMM:   7    -0.781898922188E+02   -0.33872E-03   -0.34289E-03  7386   0.204E-01    0.296E-01
RMM:   8    -0.781885724531E+02    0.13198E-02   -0.74745E-04  6916   0.954E-02    0.108E-01
RMM:   9    -0.781884470020E+02    0.12545E-03   -0.15022E-04  4526   0.517E-02    0.612E-02
RMM:  10    -0.781884418656E+02    0.51364E-05   -0.96166E-05  4324   0.507E-02
  19 F= -.78188442E+02 E0= -.78117896E+02  d E =-.167096E+00
 curvature:  -4.69 expect dE=-0.251E+00 dE for cont linesearch -0.436E-01
 ZBRENT: increasing intervall
 opt :   6.1699  next Energy=   -78.261748 (dE=-0.240E+00)
 bond charge predicted
       N       E                     dE             d eps       ncg     rms          rms(c)
DAV:   1    -0.779425525565E+02    0.24589E+00   -0.15271E+02  7380   0.385E+01    0.230E+00
RMM:   2    -0.788179662463E+02   -0.87541E+00   -0.42660E+00  7421   0.779E+00    0.575E+00
RMM:   3    -0.787346221496E+02    0.83344E-01   -0.43464E-01  8264   0.203E+00    0.509E+00
RMM:   4    -0.783047375994E+02    0.42988E+00   -0.79011E-02  7446   0.950E-01    0.129E+00
RMM:   5    -0.782904225099E+02    0.14315E-01   -0.24586E-02  7422   0.564E-01    0.113E+00
RMM:   6    -0.782801786019E+02    0.10244E-01   -0.19236E-02  7413   0.499E-01    0.769E-01
RMM:   7    -0.782812657668E+02   -0.10872E-02   -0.21096E-02  7422   0.494E-01    0.743E-01
RMM:   8    -0.782737324664E+02    0.75333E-02   -0.11352E-02  7414   0.356E-01    0.333E-01
RMM:   9    -0.782722656061E+02    0.14669E-02   -0.15227E-03  7356   0.137E-01    0.103E-01
RMM:  10    -0.782722792400E+02   -0.13634E-04   -0.52864E-04  6180   0.771E-02
  20 F= -.78272279E+02 E0= -.78204973E+02  d E =-.250934E+00
 curvature:  -7.90 expect dE=-0.464E+00 dE for cont linesearch -0.228E-03
 trial: gam= 0.27646 g(F)=  0.587E-01 g(S)=  0.000E+00 ort =-0.274E-02 (trialstep = 0.173E+01)
 search vector abs. value=  0.771E-01
 bond charge predicted
       N       E                     dE             d eps       ncg     rms          rms(c)
DAV:   1    -0.783536128044E+02   -0.81347E-01   -0.10016E+01  8478   0.890E+00    0.917E-01
RMM:   2    -0.791047785833E+02   -0.75117E+00   -0.28923E-01  7451   0.202E+00    0.655E+00
RMM:   3    -0.784142690361E+02    0.69051E+00   -0.76334E-02  7447   0.857E-01    0.171E+00
RMM:   4    -0.783667628433E+02    0.47506E-01   -0.28357E-02  7429   0.568E-01    0.548E-01
RMM:   5    -0.783629586896E+02    0.38042E-02   -0.56329E-03  7489   0.250E-01    0.299E-01
RMM:   6    -0.783622649533E+02    0.69374E-03   -0.16388E-03  7392   0.137E-01    0.206E-01
RMM:   7    -0.783623529771E+02   -0.88024E-04   -0.12421E-03  7369   0.129E-01    0.191E-01
RMM:   8    -0.783621069763E+02    0.24600E-03   -0.10187E-03  7335   0.117E-01    0.121E-01
RMM:   9    -0.783619334608E+02    0.17352E-03   -0.21049E-04  4755   0.560E-02    0.670E-02
RMM:  10    -0.783618928746E+02    0.40586E-04   -0.47903E-05  4319   0.403E-02
  21 F= -.78361893E+02 E0= -.78295173E+02  d E =-.896136E-01
 ZBRENT: can't locate minimum, use default step
 trial-energy change:   -0.089614  1 .order   -0.089889   -0.100182   -0.079595
 step:   6.9102(harm=  8.4071)  dis= 0.12933  next Energy=   -78.516043 (dE=-0.244E+00)
 bond charge predicted
       N       E                     dE             d eps       ncg     rms          rms(c)
DAV:   1    -0.783431228743E+02    0.18811E-01   -0.90594E+01  7380   0.271E+01    0.344E+00
RMM:   2    -0.849114410679E+02   -0.65683E+01   -0.44794E+00  7498   0.850E+00    0.149E+01
RMM:   3    -0.794261003804E+02    0.54853E+01   -0.10059E+00  7482   0.301E+00    0.698E+00
RMM:   4    -0.785569544118E+02    0.86915E+00   -0.41672E-01  7420   0.231E+00    0.212E+00
RMM:   5    -0.785258222334E+02    0.31132E-01   -0.90946E-02  7625   0.943E-01    0.168E+00
RMM:   6    -0.784916192718E+02    0.34203E-01   -0.21055E-02  7560   0.482E-01    0.878E-01
RMM:   7    -0.784877917046E+02    0.38276E-02   -0.12942E-02  7434   0.416E-01    0.698E-01
RMM:   8    -0.784832393454E+02    0.45524E-02   -0.11475E-02  7418   0.396E-01    0.400E-01
RMM:   9    -0.784820323871E+02    0.12070E-02   -0.69386E-03  7436   0.263E-01    0.219E-01
RMM:  10    -0.784814039688E+02    0.62842E-03   -0.10693E-03  7358   0.108E-01    0.888E-02
RMM:  11    -0.784813161484E+02    0.87820E-04   -0.11469E-04  4459   0.488E-02
  22 F= -.78481316E+02 E0= -.78415966E+02  d E =-.209037E+00
 curvature:  -5.31 expect dE=-0.607E+00 dE for cont linesearch -0.231E-03
 trial: gam= 1.80454 g(F)=  0.114E+00 g(S)=  0.000E+00 ort =-0.183E-02 (trialstep = 0.594E+00)
 search vector abs. value=  0.359E+00
 bond charge predicted
       N       E                     dE             d eps       ncg     rms          rms(c)
DAV:   1    -0.785330120326E+02   -0.51608E-01   -0.42953E+00  8280   0.554E+00    0.309E-01
RMM:   2    -0.785734999085E+02   -0.40488E-01   -0.67765E-02  7416   0.107E+00    0.151E+00
RMM:   3    -0.785411991502E+02    0.32301E-01   -0.11257E-02  9097   0.321E-01    0.354E-01
RMM:   4    -0.785400670642E+02    0.11321E-02   -0.18913E-03  7379   0.179E-01    0.254E-01
RMM:   5    -0.785393559292E+02    0.71113E-03   -0.93989E-04  7251   0.105E-01    0.180E-01
RMM:   6    -0.785391488584E+02    0.20707E-03   -0.95375E-04  7253   0.102E-01    0.123E-01
RMM:   7    -0.785392295049E+02   -0.80647E-04   -0.57719E-04  6593   0.826E-02
  23 F= -.78539230E+02 E0= -.78474318E+02  d E =-.579134E-01
 ZBRENT: can't locate minimum, use default step
 trial-energy change:   -0.057913  1 .order   -0.057924   -0.065974   -0.049874
 step:   2.3750(harm=  2.4330)  dis= 0.08609  next Energy=   -78.616489 (dE=-0.135E+00)
 bond charge predicted
       N       E                     dE             d eps       ncg     rms          rms(c)
DAV:   1    -0.785272404482E+02    0.11908E-01   -0.38798E+01  7398   0.168E+01    0.110E+00
RMM:   2    -0.791247642465E+02   -0.59752E+00   -0.93305E-01  7400   0.459E+00    0.566E+00
RMM:   3    -0.786452446509E+02    0.47952E+00   -0.18726E-01  8790   0.120E+00    0.149E+00
RMM:   4    -0.786157823284E+02    0.29462E-01   -0.30201E-02  7413   0.754E-01    0.813E-01
RMM:   5    -0.786095168778E+02    0.62655E-02   -0.98814E-03  7411   0.363E-01    0.683E-01
RMM:   6    -0.786050496142E+02    0.44673E-02   -0.76576E-03  7396   0.299E-01    0.406E-01
RMM:   7    -0.786072271599E+02   -0.21775E-02   -0.87083E-03  7420   0.311E-01    0.511E-01
RMM:   8    -0.786041831618E+02    0.30440E-02   -0.21182E-03  7390   0.175E-01    0.305E-01
RMM:   9    -0.786031189539E+02    0.10642E-02   -0.35696E-04  5324   0.682E-02    0.122E-01
RMM:  10    -0.786029062659E+02    0.21269E-03   -0.16379E-04  4473   0.633E-02    0.363E-02
RMM:  11    -0.786028879018E+02    0.18364E-04   -0.76761E-05  4297   0.434E-02
  24 F= -.78602888E+02 E0= -.78538336E+02  d E =-.121572E+00
 curvature:  -3.92 expect dE=-0.994E-01 dE for cont linesearch -0.297E-02
 ZBRENT: interpolating
 opt :   2.0827  next Energy=   -78.605298 (dE=-0.124E+00)
 bond charge predicted
       N       E                     dE             d eps       ncg     rms          rms(c)
DAV:   1    -0.786036676885E+02   -0.76142E-03   -0.10485E+00  8532   0.273E+00    0.153E-01
RMM:   2    -0.786092435236E+02   -0.55758E-02   -0.15046E-02  7405   0.466E-01    0.540E-01
RMM:   3    -0.786053367392E+02    0.39068E-02   -0.19988E-03  8318   0.163E-01    0.154E-01
RMM:   4    -0.786053880422E+02   -0.51303E-04   -0.48805E-04  6253   0.874E-02
  25 F= -.78605388E+02 E0= -.78540735E+02  d E =-.124072E+00
 curvature:  -3.18 expect dE=-0.830E-01 dE for cont linesearch -0.670E-04
 trial: gam=-0.09064 g(F)=  0.261E-01 g(S)=  0.000E+00 ort = 0.275E-02 (trialstep = 0.892E+00)
 search vector abs. value=  0.285E-01
 bond charge predicted
       N       E                     dE             d eps       ncg     rms          rms(c)
DAV:   1    -0.786226822172E+02   -0.17345E-01   -0.12181E+00  7398   0.310E+00    0.296E-01
RMM:   2    -0.786786501154E+02   -0.55968E-01   -0.31215E-02  7437   0.574E-01    0.190E+00
RMM:   3    -0.786266348261E+02    0.52015E-01   -0.62215E-03  7404   0.284E-01    0.488E-01
RMM:   4    -0.786238852703E+02    0.27496E-02   -0.26154E-03  7388   0.173E-01    0.216E-01
RMM:   5    -0.786233173116E+02    0.56796E-03   -0.58073E-04  6595   0.947E-02    0.125E-01
RMM:   6    -0.786231767220E+02    0.14059E-03   -0.26175E-04  4841   0.701E-02    0.855E-02
RMM:   7    -0.786231487709E+02    0.27951E-04   -0.29247E-04  5207   0.821E-02
  26 F= -.78623149E+02 E0= -.78558070E+02  d E =-.177607E-01
 trial-energy change:   -0.017761  1 .order   -0.018254   -0.023045   -0.013463
 step:   2.1442(harm=  2.1442)  dis= 0.01603  next Energy=   -78.633100 (dE=-0.277E-01)
 bond charge predicted
       N       E                     dE             d eps       ncg     rms          rms(c)
DAV:   1    -0.786312333404E+02   -0.80566E-02   -0.23884E+00  7704   0.435E+00    0.394E-01
RMM:   2    -0.787439587389E+02   -0.11273E+00   -0.59504E-02  7437   0.800E-01    0.276E+00
RMM:   3    -0.786410553133E+02    0.10290E+00   -0.13382E-02  7428   0.419E-01    0.748E-01
RMM:   4    -0.786343341915E+02    0.67211E-02   -0.51683E-03  7394   0.257E-01    0.350E-01
RMM:   5    -0.786325364739E+02    0.17977E-02   -0.11598E-03  7295   0.127E-01    0.135E-01
RMM:   6    -0.786323430862E+02    0.19339E-03   -0.32911E-04  5466   0.681E-02    0.962E-02
RMM:   7    -0.786323750027E+02   -0.31917E-04   -0.47111E-04  6401   0.937E-02
  27 F= -.78632375E+02 E0= -.78566907E+02  d E =-.269870E-01
 curvature:  -1.18 expect dE=-0.170E-01 dE for cont linesearch -0.148E-06
 trial: gam= 0.55756 g(F)=  0.143E-01 g(S)=  0.000E+00 ort = 0.598E-04 (trialstep = 0.114E+01)
 search vector abs. value=  0.233E-01
 bond charge predicted
       N       E                     dE             d eps       ncg     rms          rms(c)
DAV:   1    -0.786444755103E+02   -0.12132E-01   -0.15914E+00  8532   0.337E+00    0.168E-01
RMM:   2    -0.786579338354E+02   -0.13458E-01   -0.25343E-02  7419   0.611E-01    0.876E-01
RMM:   3    -0.786470653540E+02    0.10868E-01   -0.32083E-03  8513   0.204E-01    0.141E-01
RMM:   4    -0.786470871270E+02   -0.21773E-04   -0.55636E-04  6331   0.897E-02
  28 F= -.78647087E+02 E0= -.78581581E+02  d E =-.147121E-01
 ZBRENT: can't locate minimum, use default step
 trial-energy change:   -0.014712  1 .order   -0.014362   -0.016407   -0.012316
 step:   4.5683(harm=  4.5802)  dis= 0.02847  next Energy=   -78.665275 (dE=-0.329E-01)
 bond charge predicted
       N       E                     dE             d eps       ncg     rms          rms(c)
DAV:   1    -0.786482545751E+02   -0.11892E-02   -0.14316E+01  7380   0.101E+01    0.514E-01
RMM:   2    -0.787266578525E+02   -0.78403E-01   -0.23708E-01  7422   0.213E+00    0.194E+00
RMM:   3    -0.786734024087E+02    0.53255E-01   -0.37068E-02  9902   0.576E-01    0.433E-01
RMM:   4    -0.786703807661E+02    0.30216E-02   -0.27829E-03  7415   0.201E-01    0.291E-01
RMM:   5    -0.786706286551E+02   -0.24789E-03   -0.29105E-03  7390   0.185E-01    0.314E-01
RMM:   6    -0.786706651212E+02   -0.36466E-04   -0.42271E-03  7409   0.217E-01    0.313E-01
RMM:   7    -0.786690073951E+02    0.16577E-02   -0.18069E-03  7410   0.135E-01    0.732E-02
RMM:   8    -0.786689550896E+02    0.52305E-04   -0.15509E-04  4403   0.606E-02
  29 F= -.78668955E+02 E0= -.78602107E+02  d E =-.365801E-01
 curvature:  -3.71 expect dE=-0.396E-01 dE for cont linesearch -0.110E-02
 ZBRENT: extrapolating
 opt :   5.6705  next Energy=   -78.670402 (dE=-0.380E-01)
 bond charge predicted
       N       E                     dE             d eps       ncg     rms          rms(c)
DAV:   1    -0.786676633737E+02    0.13440E-02   -0.14727E+00  8280   0.324E+00    0.156E-01
RMM:   2    -0.786744257536E+02   -0.67624E-02   -0.23754E-02  7429   0.611E-01    0.561E-01
RMM:   3    -0.786702239480E+02    0.42018E-02   -0.29727E-03  9185   0.186E-01    0.150E-01
RMM:   4    -0.786701734917E+02    0.50456E-04   -0.39846E-04  5912   0.759E-02
  30 F= -.78670173E+02 E0= -.78602988E+02  d E =-.377985E-01
 curvature:  -4.89 expect dE=-0.768E-01 dE for cont linesearch -0.769E-04
 trial: gam= 1.18424 g(F)=  0.157E-01 g(S)=  0.000E+00 ort =-0.605E-03 (trialstep = 0.102E+01)
 search vector abs. value=  0.469E-01
 bond charge predicted
       N       E                     dE             d eps       ncg     rms          rms(c)
DAV:   1    -0.786810448396E+02   -0.10821E-01   -0.24158E+00  7416   0.431E+00    0.227E-01
RMM:   2    -0.787103312452E+02   -0.29286E-01   -0.38556E-02  7423   0.772E-01    0.129E+00
RMM:   3    -0.786847578682E+02    0.25573E-01   -0.46793E-03  7951   0.262E-01    0.202E-01
RMM:   4    -0.786841577341E+02    0.60013E-03   -0.87879E-04  7015   0.106E-01    0.129E-01
RMM:   5    -0.786840856811E+02    0.72053E-04   -0.39260E-04  6004   0.749E-02
  31 F= -.78684086E+02 E0= -.78616653E+02  d E =-.139122E-01
 ZBRENT: can't locate minimum, use default step
 trial-energy change:   -0.013912  1 .order   -0.014290   -0.015242   -0.013338
 step:   4.0620(harm=  8.1284)  dis= 0.04335  next Energy=   -78.731174 (dE=-0.610E-01)
 bond charge predicted
       N       E                     dE             d eps       ncg     rms          rms(c)
DAV:   1    -0.786789854747E+02    0.51723E-02   -0.21704E+01  7380   0.130E+01    0.637E-01
RMM:   2    -0.790121338820E+02   -0.33315E+00   -0.39223E-01  7425   0.264E+00    0.438E+00
RMM:   3    -0.787197232195E+02    0.29241E+00   -0.59452E-02  8721   0.824E-01    0.623E-01
RMM:   4    -0.787139403860E+02    0.57828E-02   -0.75976E-03  7424   0.328E-01    0.441E-01
RMM:   5    -0.787120824785E+02    0.18579E-02   -0.20317E-03  7398   0.180E-01    0.339E-01
RMM:   6    -0.787116724510E+02    0.41003E-03   -0.37441E-03  7437   0.185E-01    0.295E-01
RMM:   7    -0.787117452945E+02   -0.72843E-04   -0.33343E-03  7410   0.192E-01    0.284E-01
RMM:   8    -0.787105192040E+02    0.12261E-02   -0.10774E-03  7318   0.108E-01    0.127E-01
RMM:   9    -0.787103615168E+02    0.15769E-03   -0.13773E-04  4354   0.519E-02    0.799E-02
RMM:  10    -0.787102690584E+02    0.92458E-04   -0.86100E-05  4261   0.514E-02
  32 F= -.78710269E+02 E0= -.78641425E+02  d E =-.400956E-01
 curvature:  -8.55 expect dE=-0.961E-01 dE for cont linesearch -0.467E-02
 ZBRENT: increasing intervall
 opt :  10.1550  next Energy=   -78.691915 (dE=-0.217E-01)
 bond charge predicted
       N       E                     dE             d eps       ncg     rms          rms(c)
DAV:   1    -0.785181445541E+02    0.19222E+00   -0.86843E+01  7380   0.262E+01    0.132E+00
RMM:   2    -0.791502569597E+02   -0.63211E+00   -0.19276E+00  7425   0.638E+00    0.557E+00
RMM:   3    -0.787699373697E+02    0.38032E+00   -0.34768E-01  9852   0.168E+00    0.215E+00
RMM:   4    -0.787225368031E+02    0.47401E-01   -0.34847E-02  7422   0.739E-01    0.124E+00
RMM:   5    -0.787050013355E+02    0.17535E-01   -0.83950E-03  7416   0.376E-01    0.847E-01
RMM:   6    -0.787001519325E+02    0.48494E-02   -0.81773E-03  7469   0.262E-01    0.712E-01
RMM:   7    -0.786966321164E+02    0.35198E-02   -0.22968E-02  7418   0.509E-01    0.505E-01
RMM:   8    -0.786936165278E+02    0.30156E-02   -0.71954E-03  7427   0.303E-01    0.314E-01
RMM:   9    -0.786927120048E+02    0.90452E-03   -0.15861E-03  7591   0.137E-01    0.186E-01
RMM:  10    -0.786921760971E+02    0.53591E-03   -0.41709E-04  5734   0.725E-02    0.548E-02
RMM:  11    -0.786921548516E+02    0.21246E-04   -0.82993E-05  4298   0.478E-02
  33 F= -.78692155E+02 E0= -.78621163E+02  d E =-.219814E-01
 curvature:  33.63 expect dE= 0.264E+01 dE for cont linesearch  0.825E-01
 ZBRENT: bracketing found
 ZBRENT: interpolating
 opt :   6.0145  next Energy=   -78.715210 (dE=-0.450E-01)
 bond charge predicted
       N       E                     dE             d eps       ncg     rms          rms(c)
DAV:   1    -0.786449919536E+02    0.47184E-01   -0.40182E+01  7380   0.177E+01    0.108E+00
RMM:   2    -0.794222428110E+02   -0.77725E+00   -0.10353E+00  7412   0.483E+00    0.644E+00
RMM:   3    -0.787665719091E+02    0.65567E+00   -0.16213E-01  8628   0.119E+00    0.158E+00
RMM:   4    -0.787319164901E+02    0.34655E-01   -0.26960E-02  7421   0.660E-01    0.907E-01
RMM:   5    -0.787187488342E+02    0.13168E-01   -0.53941E-03  7421   0.299E-01    0.435E-01
RMM:   6    -0.787166909580E+02    0.20579E-02   -0.45484E-03  7440   0.226E-01    0.337E-01
RMM:   7    -0.787166404744E+02    0.50484E-04   -0.73105E-03  7444   0.285E-01    0.329E-01
RMM:   8    -0.787149925923E+02    0.16479E-02   -0.37878E-03  7581   0.207E-01    0.112E-01
RMM:   9    -0.787147857225E+02    0.20687E-03   -0.33573E-04  5483   0.664E-02    0.599E-02
RMM:  10    -0.787147191727E+02    0.66550E-04   -0.11634E-04  4284   0.535E-02
  34 F= -.78714719E+02 E0= -.78645112E+02  d E =-.445457E-01
 curvature:  -2.01 expect dE=-0.428E-01 dE for cont linesearch -0.502E-05
 trial: gam= 1.29230 g(F)=  0.212E-01 g(S)=  0.000E+00 ort =-0.342E-03 (trialstep = 0.958E+00)
 search vector abs. value=  0.987E-01
 bond charge predicted
       N       E                     dE             d eps       ncg     rms          rms(c)
DAV:   1    -0.787249984591E+02   -0.10213E-01   -0.43845E+00  7380   0.616E+00    0.287E-01
RMM:   2    -0.787336093380E+02   -0.86109E-02   -0.75341E-02  7421   0.104E+00    0.375E-01
RMM:   3    -0.787359358011E+02   -0.23265E-02   -0.79869E-03  8838   0.332E-01    0.534E-01
RMM:   4    -0.787330406697E+02    0.28951E-02   -0.11082E-03  7253   0.106E-01    0.342E-01
RMM:   5    -0.787315458817E+02    0.14948E-02   -0.43912E-04  5993   0.806E-02    0.154E-01
RMM:   6    -0.787313114803E+02    0.23440E-03   -0.33323E-04  5316   0.762E-02    0.122E-01
RMM:   7    -0.787312579856E+02    0.53495E-04   -0.10529E-03  7337   0.111E-01    0.104E-01
RMM:   8    -0.787310932437E+02    0.16474E-03   -0.26371E-04  4973   0.590E-02    0.462E-02
RMM:   9    -0.787310720935E+02    0.21150E-04   -0.79656E-05  4212   0.526E-02
  35 F= -.78731072E+02 E0= -.78661115E+02  d E =-.163529E-01
 trial-energy change:   -0.016353  1 .order   -0.016579   -0.019921   -0.013237
 step:   2.8549(harm=  2.8549)  dis= 0.04142  next Energy=   -78.744403 (dE=-0.297E-01)
 bond charge predicted
       N       E                     dE             d eps       ncg     rms          rms(c)
DAV:   1    -0.787147172366E+02    0.16376E-01   -0.17125E+01  7380   0.122E+01    0.589E-01
RMM:   2    -0.787556547591E+02   -0.40938E-01   -0.31340E-01  7410   0.228E+00    0.922E-01
RMM:   3    -0.788057703035E+02   -0.50116E-01   -0.42296E-02  8863   0.650E-01    0.201E+00
RMM:   4    -0.787454425842E+02    0.60328E-01   -0.99281E-03  7451   0.355E-01    0.480E-01
RMM:   5    -0.787427848514E+02    0.26577E-02   -0.23309E-03  7389   0.166E-01    0.328E-01
RMM:   6    -0.787419550590E+02    0.82979E-03   -0.13756E-03  7361   0.125E-01    0.258E-01
RMM:   7    -0.787417076219E+02    0.24744E-03   -0.33409E-03  7420   0.180E-01    0.214E-01
RMM:   8    -0.787410759801E+02    0.63164E-03   -0.12051E-03  7393   0.109E-01    0.111E-01
RMM:   9    -0.787409482704E+02    0.12771E-03   -0.18096E-04  4551   0.551E-02    0.695E-02
RMM:  10    -0.787408781129E+02    0.70158E-04   -0.74077E-05  4321   0.517E-02
  36 F= -.78740878E+02 E0= -.78670233E+02  d E =-.261589E-01
 curvature:  -6.78 expect dE=-0.569E-01 dE for cont linesearch -0.212E-03
 trial: gam= 0.55925 g(F)=  0.839E-02 g(S)=  0.000E+00 ort =-0.176E-02 (trialstep = 0.134E+01)
 search vector abs. value=  0.373E-01
 bond charge predicted
       N       E                     dE             d eps       ncg     rms          rms(c)
DAV:   1    -0.787442436094E+02   -0.32953E-02   -0.24827E+00  8478   0.468E+00    0.238E-01
RMM:   2    -0.787572665510E+02   -0.13023E-01   -0.46382E-02  7410   0.780E-01    0.754E-01
RMM:   3    -0.787503923089E+02    0.68742E-02   -0.36878E-03  7617   0.261E-01    0.381E-01
RMM:   4    -0.787485427187E+02    0.18496E-02   -0.82093E-04  6989   0.111E-01    0.175E-01
RMM:   5    -0.787483096587E+02    0.23306E-03   -0.26577E-04  4939   0.705E-02    0.140E-01
RMM:   6    -0.787481311062E+02    0.17855E-03   -0.38452E-04  5804   0.852E-02    0.834E-02
RMM:   7    -0.787480794054E+02    0.51701E-04   -0.28668E-04  4944   0.745E-02
  37 F= -.78748079E+02 E0= -.78677180E+02  d E =-.720129E-02
 trial-energy change:   -0.007201  1 .order   -0.007346   -0.009911   -0.004782
 step:   2.5842(harm=  2.5842)  dis= 0.01943  next Energy=   -78.750453 (dE=-0.958E-02)
 bond charge predicted
       N       E                     dE             d eps       ncg     rms          rms(c)
DAV:   1    -0.787467014008E+02    0.14297E-02   -0.21572E+00  7434   0.437E+00    0.222E-01
RMM:   2    -0.787738690818E+02   -0.27168E-01   -0.39217E-02  7408   0.729E-01    0.123E+00
RMM:   3    -0.787505745614E+02    0.23295E-01   -0.43386E-03  8035   0.241E-01    0.162E-01
RMM:   4    -0.787502399490E+02    0.33461E-03   -0.90337E-04  7101   0.127E-01    0.150E-01
RMM:   5    -0.787501232348E+02    0.11671E-03   -0.29058E-04  5113   0.675E-02    0.120E-01
RMM:   6    -0.787501191962E+02    0.40386E-05   -0.39965E-04  5864   0.872E-02
  38 F= -.78750119E+02 E0= -.78679310E+02  d E =-.924108E-02
 curvature:  -6.50 expect dE=-0.139E-01 dE for cont linesearch -0.543E-05
 trial: gam= 0.06682 g(F)=  0.213E-02 g(S)=  0.000E+00 ort =-0.176E-03 (trialstep = 0.159E+01)
 search vector abs. value=  0.228E-02
 bond charge predicted
       N       E                     dE             d eps       ncg     rms          rms(c)
DAV:   1    -0.787530982431E+02   -0.29750E-02   -0.10458E-01  8730   0.958E-01    0.101E-01
RMM:   2    -0.787704939303E+02   -0.17396E-01   -0.45761E-03  7416   0.256E-01    0.104E+00
RMM:   3    -0.787539239328E+02    0.16570E-01   -0.13957E-03  7274   0.118E-01    0.198E-01
RMM:   4    -0.787532097085E+02    0.71422E-03   -0.34468E-04  5521   0.817E-02    0.568E-02
RMM:   5    -0.787531863759E+02    0.23333E-04   -0.84172E-05  4318   0.452E-02
  39 F= -.78753186E+02 E0= -.78682310E+02  d E =-.306718E-02
 ZBRENT: can't locate minimum, use default step
 trial-energy change:   -0.003067  1 .order   -0.003226   -0.003367   -0.003084
 step:   6.3469(harm= 18.8484)  dis= 0.01041  next Energy=   -78.770119 (dE=-0.200E-01)
 bond charge predicted
       N       E                     dE             d eps       ncg     rms          rms(c)
DAV:   1    -0.787600257073E+02   -0.68160E-02   -0.92339E-01  7380   0.279E+00    0.153E-01
RMM:   2    -0.787656606887E+02   -0.56350E-02   -0.13495E-02  7417   0.473E-01    0.547E-01
RMM:   3    -0.787620776959E+02    0.35830E-02   -0.17577E-03  8205   0.140E-01    0.237E-01
RMM:   4    -0.787612344123E+02    0.84328E-03   -0.35241E-04  5576   0.810E-02    0.912E-02
RMM:   5    -0.787611767429E+02    0.57669E-04   -0.18517E-04  4454   0.679E-02
  40 F= -.78761177E+02 E0= -.78690364E+02  d E =-.110575E-01
 curvature:  -4.81 expect dE=-0.569E-02 dE for cont linesearch -0.408E-02
 ZBRENT: increasing intervall
 opt :  15.8672  next Energy=   -78.769127 (dE=-0.190E-01)
 bond charge predicted
       N       E                     dE             d eps       ncg     rms          rms(c)
DAV:   1    -0.787643257105E+02   -0.30913E-02   -0.36910E+00  7416   0.558E+00    0.299E-01
RMM:   2    -0.787837688594E+02   -0.19443E-01   -0.54790E-02  7418   0.948E-01    0.101E+00
RMM:   3    -0.787745354191E+02    0.92334E-02   -0.75868E-03  9214   0.284E-01    0.587E-01
RMM:   4    -0.787703403056E+02    0.41951E-02   -0.17995E-03  7372   0.162E-01    0.301E-01
RMM:   5    -0.787690801669E+02    0.12601E-02   -0.64045E-04  6971   0.915E-02    0.141E-01
RMM:   6    -0.787691407527E+02   -0.60586E-04   -0.82999E-04  7338   0.104E-01
  41 F= -.78769141E+02 E0= -.78698575E+02  d E =-.190216E-01
 curvature:  -9.38 expect dE=-0.985E-02 dE for cont linesearch -0.456E-03
 trial: gam= 0.34353 g(F)=  0.105E-02 g(S)=  0.000E+00 ort = 0.333E-03 (trialstep = 0.444E+01)
 search vector abs. value=  0.155E-02
 bond charge predicted
       N       E                     dE             d eps       ncg     rms          rms(c)
DAV:   1    -0.787709274090E+02   -0.18472E-02   -0.99638E-01  8748   0.280E+00    0.153E-01
RMM:   2    -0.787744150615E+02   -0.34877E-02   -0.18776E-02  7421   0.518E-01    0.336E-01
RMM:   3    -0.787762956914E+02   -0.18806E-02   -0.20555E-03  7769   0.172E-01    0.490E-01
RMM:   4    -0.787727708633E+02    0.35248E-02   -0.56328E-04  6470   0.848E-02    0.126E-01
RMM:   5    -0.787725951787E+02    0.17568E-03   -0.16840E-04  4510   0.622E-02    0.819E-02
RMM:   6    -0.787725685344E+02    0.26644E-04   -0.11827E-04  4355   0.599E-02
  42 F= -.78772569E+02 E0= -.78702162E+02  d E =-.342778E-02
 trial-energy change:   -0.003428  1 .order   -0.003584   -0.005173   -0.001995
 step:   7.2322(harm=  7.2322)  dis= 0.01289  next Energy=   -78.773351 (dE=-0.421E-02)
 bond charge predicted
       N       E                     dE             d eps       ncg     rms          rms(c)
DAV:   1    -0.787725233148E+02    0.71864E-04   -0.39329E-01  8280   0.176E+00    0.103E-01
RMM:   2    -0.787772810279E+02   -0.47577E-02   -0.76267E-03  7411   0.339E-01    0.516E-01
RMM:   3    -0.787737233090E+02    0.35577E-02   -0.90697E-04  7287   0.105E-01    0.187E-01
RMM:   4    -0.787732336578E+02    0.48965E-03   -0.22740E-04  4849   0.646E-02    0.837E-02
RMM:   5    -0.787731595620E+02    0.74096E-04   -0.82630E-05  4255   0.530E-02
  43 F= -.78773160E+02 E0= -.78702735E+02  d E =-.401881E-02
 curvature:  -4.81 expect dE=-0.162E-01 dE for cont linesearch -0.805E-05
 trial: gam= 3.33081 g(F)=  0.338E-02 g(S)=  0.000E+00 ort =-0.509E-04 (trialstep = 0.383E+00)
 search vector abs. value=  0.202E-01
 bond charge predicted
       N       E                     dE             d eps       ncg     rms          rms(c)
DAV:   1    -0.787742090000E+02   -0.97534E-03   -0.10351E-01  8604   0.920E-01    0.724E-02
RMM:   2    -0.787782478890E+02   -0.40389E-02   -0.24630E-03  7409   0.174E-01    0.483E-01
RMM:   3    -0.787745793917E+02    0.36685E-02   -0.39011E-04  5762   0.742E-02    0.126E-01
RMM:   4    -0.787743550377E+02    0.22435E-03   -0.17102E-04  4561   0.627E-02    0.459E-02
RMM:   5    -0.787743556051E+02   -0.56738E-06   -0.59658E-05  4264   0.412E-02
  44 F= -.78774356E+02 E0= -.78704028E+02  d E =-.119604E-02
 ZBRENT: can't locate minimum, use default step
 trial-energy change:   -0.001196  1 .order   -0.001172   -0.001228   -0.001116
 step:   1.5320(harm=  4.2056)  dis= 0.00607  next Energy=   -78.779901 (dE=-0.674E-02)
 bond charge predicted
       N       E                     dE             d eps       ncg     rms          rms(c)
DAV:   1    -0.787756205449E+02   -0.12655E-02   -0.91940E-01  7380   0.272E+00    0.152E-01
RMM:   2    -0.787801840983E+02   -0.45636E-02   -0.16093E-02  7418   0.492E-01    0.462E-01
RMM:   3    -0.787783485471E+02    0.18356E-02   -0.15600E-03  7781   0.144E-01    0.295E-01
RMM:   4    -0.787771834643E+02    0.11651E-02   -0.52656E-04  6457   0.887E-02    0.135E-01
RMM:   5    -0.787769481898E+02    0.23527E-03   -0.12957E-04  4424   0.537E-02    0.739E-02
RMM:   6    -0.787768975672E+02    0.50623E-04   -0.13163E-04  4277   0.497E-02
  45 F= -.78776898E+02 E0= -.78706661E+02  d E =-.373801E-02
 curvature:  -6.77 expect dE=-0.105E-01 dE for cont linesearch -0.101E-02
 ZBRENT: increasing intervall
 opt :   3.8300  next Energy=   -78.778178 (dE=-0.502E-02)
 bond charge predicted
       N       E                     dE             d eps       ncg     rms          rms(c)
DAV:   1    -0.787726499571E+02    0.42982E-02   -0.36628E+00  7380   0.543E+00    0.284E-01
RMM:   2    -0.787818800292E+02   -0.92301E-02   -0.62931E-02  7421   0.102E+00    0.525E-01
RMM:   3    -0.787879003531E+02   -0.60203E-02   -0.69343E-03  9487   0.274E-01    0.772E-01
RMM:   4    -0.787787483048E+02    0.91520E-02   -0.19106E-03  7383   0.143E-01    0.194E-01
RMM:   5    -0.787781884403E+02    0.55986E-03   -0.35743E-04  5630   0.711E-02    0.115E-01
RMM:   6    -0.787782189598E+02   -0.30520E-04   -0.53482E-04  6727   0.888E-02
  46 F= -.78778219E+02 E0= -.78708122E+02  d E =-.505940E-02
 curvature:  -8.59 expect dE=-0.231E-01 dE for cont linesearch -0.798E-04
 trial: gam= 0.80695 g(F)=  0.268E-02 g(S)=  0.000E+00 ort =-0.433E-03 (trialstep = 0.107E+01)
 search vector abs. value=  0.151E-01
 bond charge predicted
       N       E                     dE             d eps       ncg     rms          rms(c)
DAV:   1    -0.787796866165E+02   -0.14982E-02   -0.57109E-01  7686   0.211E+00    0.154E-01
RMM:   2    -0.787838393444E+02   -0.41527E-02   -0.90564E-03  7418   0.360E-01    0.453E-01
RMM:   3    -0.787803985563E+02    0.34408E-02   -0.22185E-03  7366   0.199E-01    0.992E-02
RMM:   4    -0.787815660043E+02   -0.11674E-02   -0.34063E-04  5547   0.612E-02    0.296E-01
RMM:   5    -0.787803250118E+02    0.12410E-02   -0.14381E-04  4409   0.572E-02    0.687E-02
RMM:   6    -0.787802762417E+02    0.48770E-04   -0.80143E-05  4300   0.483E-02
  47 F= -.78780276E+02 E0= -.78710407E+02  d E =-.205728E-02
 ZBRENT: can't locate minimum, use default step
 trial-energy change:   -0.002057  1 .order   -0.002232   -0.002504   -0.001961
 step:   4.2896(harm=  4.9458)  dis= 0.02259  next Energy=   -78.783993 (dE=-0.577E-02)
 bond charge predicted
       N       E                     dE             d eps       ncg     rms          rms(c)
DAV:   1    -0.787775661485E+02    0.27589E-02   -0.51489E+00  7380   0.630E+00    0.310E-01
RMM:   2    -0.787858094391E+02   -0.82433E-02   -0.76605E-02  7421   0.122E+00    0.348E-01
RMM:   3    -0.788004342846E+02   -0.14625E-01   -0.98904E-03  9692   0.306E-01    0.995E-01
RMM:   4    -0.787856682646E+02    0.14766E-01   -0.20032E-03  7463   0.137E-01    0.230E-01
RMM:   5    -0.787849382339E+02    0.73003E-03   -0.70358E-04  6808   0.947E-02    0.158E-01
RMM:   6    -0.787848764756E+02    0.61758E-04   -0.59382E-04  7031   0.875E-02
  48 F= -.78784876E+02 E0= -.78715071E+02  d E =-.665752E-02
 curvature: -15.58 expect dE=-0.258E-01 dE for cont linesearch -0.128E-02
 ZBRENT: increasing intervall
 opt :  10.7241  next Energy=   -78.787483 (dE=-0.926E-02)
 bond charge predicted
       N       E                     dE             d eps       ncg     rms          rms(c)
DAV:   1    -0.787504352857E+02    0.34503E-01   -0.20525E+01  7380   0.126E+01    0.665E-01
RMM:   2    -0.787886011128E+02   -0.38166E-01   -0.35329E-01  7427   0.286E+00    0.795E-01
RMM:   3    -0.788513102384E+02   -0.62709E-01   -0.52743E-02  9650   0.684E-01    0.207E+00
RMM:   4    -0.787887401739E+02    0.62570E-01   -0.96445E-03  7531   0.302E-01    0.562E-01
RMM:   5    -0.787838865460E+02    0.48536E-02   -0.29376E-03  7416   0.207E-01    0.317E-01
RMM:   6    -0.787835435228E+02    0.34302E-03   -0.22553E-03  7410   0.144E-01    0.306E-01
RMM:   7    -0.787835939746E+02   -0.50452E-04   -0.38923E-03  7407   0.210E-01    0.309E-01
RMM:   8    -0.787823678454E+02    0.12261E-02   -0.26165E-03  7418   0.172E-01    0.852E-02
RMM:   9    -0.787822460230E+02    0.12182E-03   -0.21186E-04  4655   0.630E-02    0.515E-02
RMM:  10    -0.787822152852E+02    0.30738E-04   -0.88919E-05  4305   0.525E-02
  49 F= -.78782215E+02 E0= -.78713081E+02  d E =-.399633E-02
 curvature: -31.64 expect dE=-0.945E-01 dE for cont linesearch -0.320E-02
 ZBRENT: bracketing found
 ZBRENT: interpolating
 opt :   7.3416  next Energy=   -78.786581 (dE=-0.836E-02)
 bond charge predicted
       N       E                     dE             d eps       ncg     rms          rms(c)
DAV:   1    -0.787776393395E+02    0.46067E-02   -0.56815E+00  7452   0.662E+00    0.307E-01
RMM:   2    -0.787867839311E+02   -0.91446E-02   -0.81078E-02  7421   0.123E+00    0.345E-01
RMM:   3    -0.788008850275E+02   -0.14101E-01   -0.12364E-02  9802   0.336E-01    0.976E-01
RMM:   4    -0.787861599806E+02    0.14725E-01   -0.20925E-03  7420   0.151E-01    0.220E-01
RMM:   5    -0.787856468800E+02    0.51310E-03   -0.77433E-04  6973   0.882E-02    0.168E-01
RMM:   6    -0.787855734520E+02    0.73428E-04   -0.73312E-04  7200   0.962E-02
  50 F= -.78785573E+02 E0= -.78716318E+02  d E =-.735449E-02
 curvature: -16.84 expect dE=-0.305E-01 dE for cont linesearch -0.461E-03
 trial: gam= 0.32125 g(F)=  0.181E-02 g(S)=  0.000E+00 ort =-0.644E-03 (trialstep = 0.233E+01)
 search vector abs. value=  0.296E-02
 bond charge predicted
       N       E                     dE             d eps       ncg     rms          rms(c)
DAV:   1    -0.787878838476E+02   -0.22370E-02   -0.65949E-01  8406   0.236E+00    0.145E-01
RMM:   2    -0.788244737200E+02   -0.36590E-01   -0.16239E-02  7443   0.474E-01    0.147E+00
RMM:   3    -0.787893957974E+02    0.35078E-01   -0.31338E-03  7390   0.188E-01    0.173E-01
RMM:   4    -0.787888696317E+02    0.52617E-03   -0.70501E-04  6905   0.109E-01    0.891E-02
RMM:   5    -0.787887647683E+02    0.10486E-03   -0.99843E-05  4348   0.418E-02    0.564E-02
RMM:   6    -0.787887812762E+02   -0.16508E-04   -0.93691E-05  4350   0.489E-02
  51 F= -.78788781E+02 E0= -.78719331E+02  d E =-.320782E-02
 ZBRENT: can't locate minimum, use default step
 trial-energy change:   -0.003208  1 .order   -0.003411   -0.003734   -0.003087
 step:   9.3050(harm= 13.4193)  dis= 0.02076  next Energy=   -78.796345 (dE=-0.108E-01)
 bond charge predicted
       N       E                     dE             d eps       ncg     rms          rms(c)
DAV:   1    -0.787854322297E+02    0.33325E-02   -0.58802E+00  7380   0.706E+00    0.347E-01
RMM:   2    -0.787964245741E+02   -0.10992E-01   -0.97464E-02  7421   0.125E+00    0.407E-01
RMM:   3    -0.788102589438E+02   -0.13834E-01   -0.11521E-02  9532   0.361E-01    0.994E-01
RMM:   4    -0.787968637746E+02    0.13395E-01   -0.26874E-03  7456   0.167E-01    0.365E-01
RMM:   5    -0.787947275135E+02    0.21363E-02   -0.91787E-04  7257   0.108E-01    0.149E-01
RMM:   6    -0.787946629251E+02    0.64588E-04   -0.91378E-04  7362   0.103E-01
  52 F= -.78794663E+02 E0= -.78724932E+02  d E =-.908947E-02
 curvature: -10.67 expect dE=-0.333E-01 dE for cont linesearch -0.545E-03
 trial: gam= 1.47966 g(F)=  0.312E-02 g(S)=  0.000E+00 ort = 0.389E-03 (trialstep = 0.103E+01)
 search vector abs. value=  0.107E-01
 bond charge predicted
       N       E                     dE             d eps       ncg     rms          rms(c)
DAV:   1    -0.787963314194E+02   -0.16039E-02   -0.55479E-01  7380   0.235E+00    0.178E-01
RMM:   2    -0.787978806209E+02   -0.15492E-02   -0.12808E-02  7417   0.375E-01    0.208E-01
RMM:   3    -0.788017450079E+02   -0.38644E-02   -0.16461E-03  7446   0.163E-01    0.538E-01
RMM:   4    -0.787974857533E+02    0.42593E-02   -0.49964E-04  6256   0.777E-02    0.145E-01
RMM:   5    -0.787972511918E+02    0.23456E-03   -0.20192E-04  4620   0.669E-02    0.903E-02
RMM:   6    -0.787971582193E+02    0.92972E-04   -0.10506E-04  4271   0.603E-02
  53 F= -.78797158E+02 E0= -.78727443E+02  d E =-.249529E-02
 trial-energy change:   -0.002495  1 .order   -0.002903   -0.003785   -0.002021
 step:   2.1994(harm=  2.1994)  dis= 0.01418  next Energy=   -78.798723 (dE=-0.406E-02)
 bond charge predicted
       N       E                     dE             d eps       ncg     rms          rms(c)
DAV:   1    -0.787973061300E+02   -0.54938E-04   -0.72856E-01  7380   0.268E+00    0.199E-01
RMM:   2    -0.787992128769E+02   -0.19067E-02   -0.16327E-02  7408   0.425E-01    0.225E-01
RMM:   3    -0.788048227348E+02   -0.56099E-02   -0.19558E-03  7435   0.176E-01    0.639E-01
RMM:   4    -0.787987419819E+02    0.60808E-02   -0.62247E-04  6675   0.838E-02    0.159E-01
RMM:   5    -0.787984336750E+02    0.30831E-03   -0.23095E-04  4822   0.685E-02    0.926E-02
RMM:   6    -0.787983421967E+02    0.91478E-04   -0.12954E-04  4335   0.614E-02
  54 F= -.78798342E+02 E0= -.78728551E+02  d E =-.367927E-02
 curvature:  -3.20 expect dE=-0.471E-02 dE for cont linesearch -0.305E-04
 trial: gam= 0.53465 g(F)=  0.147E-02 g(S)=  0.000E+00 ort = 0.320E-03 (trialstep = 0.126E+01)
 search vector abs. value=  0.489E-02
 bond charge predicted
       N       E                     dE             d eps       ncg     rms          rms(c)
DAV:   1    -0.787994890431E+02   -0.10554E-02   -0.34956E-01  7416   0.189E+00    0.106E-01
RMM:   2    -0.788025884148E+02   -0.30994E-02   -0.70969E-03  7405   0.300E-01    0.393E-01
RMM:   3    -0.788002187469E+02    0.23697E-02   -0.58421E-04  6481   0.100E-01    0.105E-01
RMM:   4    -0.788001894424E+02    0.29304E-04   -0.23872E-04  4778   0.724E-02
  55 F= -.78800189E+02 E0= -.78730553E+02  d E =-.184725E-02
 trial-energy change:   -0.001847  1 .order   -0.001792   -0.002070   -0.001513
 step:   4.6820(harm=  4.6820)  dis= 0.01623  next Energy=   -78.802189 (dE=-0.385E-02)
 bond charge predicted
       N       E                     dE             d eps       ncg     rms          rms(c)
DAV:   1    -0.787987799365E+02    0.14388E-02   -0.26014E+00  7380   0.514E+00    0.289E-01
RMM:   2    -0.788040158673E+02   -0.52359E-02   -0.50850E-02  7418   0.814E-01    0.265E-01
RMM:   3    -0.788163887589E+02   -0.12373E-01   -0.43904E-03  7954   0.254E-01    0.918E-01
RMM:   4    -0.788037781585E+02    0.12611E-01   -0.17159E-03  7384   0.136E-01    0.212E-01
RMM:   5    -0.788032676738E+02    0.51048E-03   -0.52644E-04  6401   0.863E-02    0.139E-01
RMM:   6    -0.788032047131E+02    0.62961E-04   -0.43094E-04  6121   0.847E-02
  56 F= -.78803205E+02 E0= -.78733331E+02  d E =-.486252E-02
 curvature:  -6.96 expect dE=-0.445E-02 dE for cont linesearch -0.347E-03
 trial: gam= 0.11084 g(F)=  0.640E-03 g(S)=  0.000E+00 ort = 0.494E-03 (trialstep = 0.194E+01)
 search vector abs. value=  0.809E-03
 bond charge predicted
       N       E                     dE             d eps       ncg     rms          rms(c)
DAV:   1    -0.788039585673E+02   -0.69089E-03   -0.11563E-01  8856   0.954E-01    0.816E-02
RMM:   2    -0.788094614217E+02   -0.55029E-02   -0.30486E-03  7447   0.204E-01    0.555E-01
RMM:   3    -0.788044610540E+02    0.50004E-02   -0.65328E-04  6860   0.878E-02    0.154E-01
RMM:   4    -0.788041185533E+02    0.34250E-03   -0.27526E-04  5097   0.736E-02    0.557E-02
RMM:   5    -0.788041022931E+02    0.16260E-04   -0.74569E-05  4291   0.485E-02
  57 F= -.78804102E+02 E0= -.78734237E+02  d E =-.897580E-03
 trial-energy change:   -0.000898  1 .order   -0.001078   -0.001351   -0.000805
 step:   4.8125(harm=  4.8125)  dis= 0.00714  next Energy=   -78.804876 (dE=-0.167E-02)
 bond charge predicted
       N       E                     dE             d eps       ncg     rms          rms(c)
DAV:   1    -0.788046416927E+02   -0.52314E-03   -0.24831E-01  7542   0.136E+00    0.783E-02
RMM:   2    -0.788051195816E+02   -0.47789E-03   -0.33751E-03  7390   0.237E-01    0.105E-01
RMM:   3    -0.788055752020E+02   -0.45562E-03   -0.40481E-04  5915   0.816E-02    0.205E-01
RMM:   4    -0.788050497948E+02    0.52541E-03   -0.12586E-04  4428   0.528E-02    0.856E-02
RMM:   5    -0.788049573178E+02    0.92477E-04   -0.65806E-05  4298   0.446E-02
  58 F= -.78804957E+02 E0= -.78735010E+02  d E =-.175260E-02
 curvature:  -2.80 expect dE=-0.169E-02 dE for cont linesearch -0.219E-04
 trial: gam= 0.89119 g(F)=  0.604E-03 g(S)=  0.000E+00 ort = 0.794E-04 (trialstep = 0.147E+01)
 search vector abs. value=  0.139E-02
 bond charge predicted
       N       E                     dE             d eps       ncg     rms          rms(c)
DAV:   1    -0.788056333381E+02   -0.58354E-03   -0.14003E-01  8136   0.113E+00    0.883E-02
RMM:   2    -0.788077165094E+02   -0.20832E-02   -0.29616E-03  7397   0.189E-01    0.344E-01
RMM:   3    -0.788062053461E+02    0.15112E-02   -0.39272E-04  5761   0.812E-02    0.167E-01
RMM:   4    -0.788058172361E+02    0.38811E-03   -0.18516E-04  4622   0.611E-02    0.458E-02
RMM:   5    -0.788058097426E+02    0.74935E-05   -0.57581E-05  4199   0.423E-02
  59 F= -.78805810E+02 E0= -.78735930E+02  d E =-.852425E-03
 trial-energy change:   -0.000852  1 .order   -0.000789   -0.000991   -0.000588
 step:   3.6128(harm=  3.6128)  dis= 0.00672  next Energy=   -78.806177 (dE=-0.122E-02)
 bond charge predicted
       N       E                     dE             d eps       ncg     rms          rms(c)
DAV:   1    -0.788057100379E+02    0.10720E-03   -0.29596E-01  7776   0.164E+00    0.129E-01
RMM:   2    -0.788128471443E+02   -0.71371E-02   -0.65352E-03  7423   0.277E-01    0.646E-01
RMM:   3    -0.788068746577E+02    0.59725E-02   -0.10763E-03  7324   0.123E-01    0.236E-01
RMM:   4    -0.788062168153E+02    0.65784E-03   -0.42446E-04  5877   0.781E-02    0.114E-01
RMM:   5    -0.788060275752E+02    0.18924E-03   -0.13191E-04  4352   0.590E-02    0.484E-02
RMM:   6    -0.788060137528E+02    0.13822E-04   -0.69533E-05  4240   0.387E-02
  60 F= -.78806014E+02 E0= -.78736053E+02  d E =-.105643E-02
 curvature:  -3.72 expect dE=-0.323E-02 dE for cont linesearch -0.667E-04
 trial: gam= 0.00000 g(F)=  0.869E-03 g(S)=  0.000E+00 ort =-0.158E-03 (trialstep = 0.190E+01)
 search vector abs. value=  0.869E-03
 bond charge predicted
       N       E                     dE             d eps       ncg     rms          rms(c)
DAV:   1    -0.788066329433E+02   -0.60537E-03   -0.93115E-02  8172   0.934E-01    0.121E-01
RMM:   2    -0.788106005013E+02   -0.39676E-02   -0.35155E-03  7404   0.181E-01    0.488E-01
RMM:   3    -0.788082009007E+02    0.23996E-02   -0.78566E-04  6874   0.972E-02    0.326E-01
RMM:   4    -0.788066778948E+02    0.15230E-02   -0.45999E-04  6040   0.763E-02    0.852E-02
RMM:   5    -0.788065658785E+02    0.11202E-03   -0.88021E-05  4253   0.470E-02    0.336E-02
RMM:   6    -0.788065589911E+02    0.68874E-05   -0.35409E-05  4147   0.316E-02
  61 F= -.78806559E+02 E0= -.78736622E+02  d E =-.545238E-03
 trial-energy change:   -0.000545  1 .order   -0.000566   -0.001648    0.000517
 step:   1.4439(harm=  1.4439)  dis= 0.00276  next Energy=   -78.806641 (dE=-0.628E-03)
 bond charge predicted
       N       E                     dE             d eps       ncg     rms          rms(c)
DAV:   1    -0.788066309254E+02   -0.65047E-04   -0.55541E-03  8730   0.233E-01    0.333E-02
RMM:   2    -0.788075431094E+02   -0.91218E-03   -0.28733E-04  4816   0.553E-02    0.232E-01
RMM:   3    -0.788066976801E+02    0.84543E-03   -0.88103E-05  4344   0.481E-02    0.720E-02
RMM:   4    -0.788066256694E+02    0.72011E-04   -0.46463E-05  4215   0.306E-02
  62 F= -.78806626E+02 E0= -.78736624E+02  d E =-.611917E-03
 curvature:  -0.72 expect dE=-0.178E-03 dE for cont linesearch -0.417E-06
 trial: gam= 0.30886 g(F)=  0.246E-03 g(S)=  0.000E+00 ort =-0.224E-04 (trialstep = 0.181E+01)
 search vector abs. value=  0.315E-03
 reached required accuracy - stopping structural energy minimisation
 writing wavefunctions
