 running on   18 total cores
 distrk:  each k-point on   18 cores,    1 groups
 distr:  one band on    1 cores,   18 groups
 using from now: INCAR     
 vasp.5.4.1 24Jun15 (build Oct 26 2018 17:15:27) complex                        
  
 POSCAR found type information on POSCAR  C  N  H 
 POSCAR found :  3 types and       3 ions
 scaLAPACK will be used

 ----------------------------------------------------------------------------- 
|                                                                             |
|           W    W    AA    RRRRR   N    N  II  N    N   GGGG   !!!           |
|           W    W   A  A   R    R  NN   N  II  NN   N  G    G  !!!           |
|           W    W  A    A  R    R  N N  N  II  N N  N  G       !!!           |
|           W WW W  AAAAAA  RRRRR   N  N N  II  N  N N  G  GGG   !            |
|           WW  WW  A    A  R   R   N   NN  II  N   NN  G    G                |
|           W    W  A    A  R    R  N    N  II  N    N   GGGG   !!!           |
|                                                                             |
|      For optimal performance we recommend to set                            |
|        NCORE= 4 - approx SQRT( number of cores)                             |
|      NCORE specifies how many cores store one orbital (NPAR=cpu/NCORE).     |
|      This setting can  greatly improve the performance of VASP for DFT.     |
|      The default, NPAR=number of cores might be grossly inefficient         |
|      on modern multi-core architectures or massively parallel machines.     |
|      Do your own testing !!!!                                               |
|      Unfortunately you need to use the default for GW and RPA calculations. |
|      (for HF NCORE is supported but not extensively tested yet)             |
|                                                                             |
 ----------------------------------------------------------------------------- 

 LDA part: xc-table for Ceperly-Alder, standard interpolation
 POSCAR, INCAR and KPOINTS ok, starting setup
 WARNING: small aliasing (wrap around) errors must be expected
 FFT: planning ...
 WAVECAR not read
 entering main loop
       N       E                     dE             d eps       ncg     rms          rms(c)
DAV:   1     0.399973180793E+02    0.39997E+02   -0.21076E+03    72   0.219E+02
DAV:   2    -0.174795730134E+02   -0.57477E+02   -0.57477E+02    54   0.692E+01
DAV:   3    -0.214507004138E+02   -0.39711E+01   -0.39711E+01    72   0.220E+01
DAV:   4    -0.214582009420E+02   -0.75005E-02   -0.75005E-02    36   0.971E-01
DAV:   5    -0.214582849212E+02   -0.83979E-04   -0.83978E-04    54   0.105E-01    0.796E+00
DAV:   6    -0.195508955052E+02    0.19074E+01   -0.57817E+00    36   0.851E+00    0.352E+00
DAV:   7    -0.192013409703E+02    0.34955E+00   -0.13701E+00    54   0.384E+00    0.167E+00
DAV:   8    -0.191348896841E+02    0.66451E-01   -0.20990E-01    54   0.167E+00    0.765E-01
DAV:   9    -0.191089290561E+02    0.25961E-01   -0.17684E-02    36   0.623E-01    0.129E-01
DAV:  10    -0.191048682524E+02    0.40608E-02   -0.61421E-03    72   0.258E-01    0.103E-01
DAV:  11    -0.191059888017E+02   -0.11205E-02   -0.67173E-03    36   0.344E-01    0.456E-02
DAV:  12    -0.191112519918E+02   -0.52632E-02   -0.26702E-03    36   0.243E-01    0.312E-02
DAV:  13    -0.191166908872E+02   -0.54389E-02   -0.32400E-03    36   0.202E-01    0.163E-02
DAV:  14    -0.191193177286E+02   -0.26268E-02   -0.99669E-04    36   0.105E-01    0.915E-03
DAV:  15    -0.191199241708E+02   -0.60644E-03   -0.10581E-04    72   0.306E-02    0.567E-03
DAV:  16    -0.191203516589E+02   -0.42749E-03   -0.32325E-05    72   0.193E-02    0.303E-03
DAV:  17    -0.191205287755E+02   -0.17712E-03   -0.15084E-05    36   0.101E-02    0.177E-03
DAV:  18    -0.191206470371E+02   -0.11826E-03   -0.12200E-05    72   0.882E-03    0.758E-04
DAV:  19    -0.191206873634E+02   -0.40326E-04   -0.24952E-06    36   0.477E-03    0.101E-03
DAV:  20    -0.191206962527E+02   -0.88893E-05   -0.40337E-07    36   0.249E-03
   1 F= -.19120696E+02 E0= -.19120696E+02  d E =-.191207E+02
 curvature:   0.00 expect dE= 0.000E+00 dE for cont linesearch  0.000E+00
 trial: gam= 0.00000 g(F)=  0.521E-01 g(S)=  0.000E+00 ort = 0.000E+00 (trialstep = 0.100E+01)
 search vector abs. value=  0.521E-01
 bond charge predicted
       N       E                     dE             d eps       ncg     rms          rms(c)
DAV:   1    -0.191262860218E+02   -0.55987E-02   -0.22801E+00    36   0.750E+00    0.623E-01
DAV:   2    -0.191152680170E+02    0.11018E-01   -0.89108E-02    54   0.110E+00    0.327E-01
DAV:   3    -0.191132684329E+02    0.19996E-02   -0.10984E-02    54   0.408E-01    0.129E-01
DAV:   4    -0.191129664227E+02    0.30201E-03   -0.15337E-03    54   0.174E-01    0.440E-02
DAV:   5    -0.191129847102E+02   -0.18288E-04   -0.20915E-04    36   0.616E-02    0.124E-02
DAV:   6    -0.191130262860E+02   -0.41576E-04   -0.16966E-05    36   0.192E-02    0.433E-03
DAV:   7    -0.191131082748E+02   -0.81989E-04   -0.17045E-05    36   0.135E-02    0.281E-03
DAV:   8    -0.191132348944E+02   -0.12662E-03   -0.44899E-05    36   0.187E-02    0.278E-03
DAV:   9    -0.191133011717E+02   -0.66277E-04   -0.16845E-05    36   0.105E-02    0.102E-03
DAV:  10    -0.191133347674E+02   -0.33596E-04   -0.20448E-06    72   0.386E-03    0.717E-04
DAV:  11    -0.191133516198E+02   -0.16852E-04   -0.49068E-07    36   0.218E-03    0.490E-04
DAV:  12    -0.191133612569E+02   -0.96371E-05   -0.26287E-07    72   0.189E-03
   2 F= -.19113361E+02 E0= -.19113361E+02  d E =0.733500E-02
 trial-energy change:    0.007335  1 .order    0.005578   -0.052117    0.063273
 step:   0.4293(harm=  0.4517)  dis= 0.00645  next Energy=   -19.131744 (dE=-0.110E-01)
 bond charge predicted
       N       E                     dE             d eps       ncg     rms          rms(c)
DAV:   1    -0.191357693835E+02   -0.22418E-01   -0.73520E-01    36   0.424E+00    0.348E-01
DAV:   2    -0.191323149899E+02    0.34544E-02   -0.29651E-02    54   0.632E-01    0.192E-01
DAV:   3    -0.191316155109E+02    0.69948E-03   -0.36614E-03    54   0.225E-01    0.792E-02
DAV:   4    -0.191314350708E+02    0.18044E-03   -0.82974E-04    72   0.122E-01    0.237E-02
DAV:   5    -0.191314916394E+02   -0.56569E-04   -0.10185E-04    36   0.401E-02    0.936E-03
DAV:   6    -0.191315249810E+02   -0.33342E-04   -0.10010E-05    36   0.150E-02    0.248E-03
DAV:   7    -0.191315818030E+02   -0.56822E-04   -0.67577E-06    36   0.854E-03    0.194E-03
DAV:   8    -0.191316532459E+02   -0.71443E-04   -0.14574E-05    36   0.107E-02    0.143E-03
DAV:   9    -0.191316892198E+02   -0.35974E-04   -0.61373E-06    36   0.682E-03    0.752E-04
DAV:  10    -0.191317064498E+02   -0.17230E-04   -0.17500E-06    72   0.360E-03    0.361E-04
DAV:  11    -0.191317129552E+02   -0.65054E-05   -0.19571E-07    36   0.204E-03
   3 F= -.19131713E+02 E0= -.19131713E+02  d E =-.110167E-01
 curvature:  -0.23 expect dE=-0.728E-03 dE for cont linesearch -0.851E-08
 trial: gam= 0.06277 g(F)=  0.323E-02 g(S)=  0.000E+00 ort =-0.444E-04 (trialstep = 0.886E+00)
 search vector abs. value=  0.343E-02
 bond charge predicted
       N       E                     dE             d eps       ncg     rms          rms(c)
DAV:   1    -0.191338389806E+02   -0.21325E-02   -0.32982E-02    36   0.874E-01    0.772E-02
DAV:   2    -0.191337625143E+02    0.76466E-04   -0.85518E-04    72   0.113E-01    0.367E-02
DAV:   3    -0.191337451837E+02    0.17331E-04   -0.54363E-05    36   0.289E-02    0.163E-02
DAV:   4    -0.191337433508E+02    0.18329E-05   -0.90794E-06    36   0.124E-02
   4 F= -.19133743E+02 E0= -.19133743E+02  d E =-.203040E-02
 trial-energy change:   -0.002030  1 .order   -0.002042   -0.002856   -0.001228
 step:   1.5540(harm=  1.5540)  dis= 0.00720  next Energy=   -19.134218 (dE=-0.251E-02)
 bond charge predicted
       N       E                     dE             d eps       ncg     rms          rms(c)
DAV:   1    -0.191342603776E+02   -0.51519E-03   -0.18534E-02    36   0.657E-01    0.571E-02
DAV:   2    -0.191342203087E+02    0.40069E-04   -0.46139E-04    36   0.816E-02    0.274E-02
DAV:   3    -0.191342107683E+02    0.95404E-05   -0.32944E-05    36   0.219E-02
   5 F= -.19134211E+02 E0= -.19134211E+02  d E =-.249781E-02
 curvature:  -0.83 expect dE=-0.128E-05 dE for cont linesearch -0.428E-06
 trial: gam=-0.00745 g(F)=  0.154E-05 g(S)=  0.000E+00 ort = 0.421E-04 (trialstep = 0.102E+01)
 search vector abs. value=  0.111E-05
 reached required accuracy - stopping structural energy minimisation
 writing wavefunctions
