 running on   20 total cores
 distrk:  each k-point on   20 cores,    1 groups
 distr:  one band on    1 cores,   20 groups
 using from now: INCAR     
 vasp.5.4.1 05Feb16 (build Sep 02 2018 21:45:25) complex                        
  
 POSCAR found type information on POSCAR  Cu
 POSCAR found :  1 types and      16 ions
 scaLAPACK will be used

 ----------------------------------------------------------------------------- 
|                                                                             |
|           W    W    AA    RRRRR   N    N  II  N    N   GGGG   !!!           |
|           W    W   A  A   R    R  NN   N  II  NN   N  G    G  !!!           |
|           W    W  A    A  R    R  N N  N  II  N N  N  G       !!!           |
|           W WW W  AAAAAA  RRRRR   N  N N  II  N  N N  G  GGG   !            |
|           WW  WW  A    A  R   R   N   NN  II  N   NN  G    G                |
|           W    W  A    A  R    R  N    N  II  N    N   GGGG   !!!           |
|                                                                             |
|      For optimal performance we recommend to set                            |
|        NCORE= 4 - approx SQRT( number of cores)                             |
|      NCORE specifies how many cores store one orbital (NPAR=cpu/NCORE).     |
|      This setting can  greatly improve the performance of VASP for DFT.     |
|      The default, NPAR=number of cores might be grossly inefficient         |
|      on modern multi-core architectures or massively parallel machines.     |
|      Do your own testing !!!!                                               |
|      Unfortunately you need to use the default for GW and RPA calculations. |
|      (for HF NCORE is supported but not extensively tested yet)             |
|                                                                             |
 ----------------------------------------------------------------------------- 

 LDA part: xc-table for Ceperly-Alder, standard interpolation
 POSCAR, INCAR and KPOINTS ok, starting setup
 WARNING: small aliasing (wrap around) errors must be expected
 FFT: planning ...
 WAVECAR not read
 entering main loop
       N       E                     dE             d eps       ncg     rms          rms(c)
DAV:   1     0.117224798630E+04    0.11722E+04   -0.76542E+04  3600   0.151E+03
DAV:   2     0.205779751866E+02   -0.11517E+04   -0.11028E+04  3600   0.334E+02
DAV:   3    -0.649079998454E+02   -0.85486E+02   -0.84237E+02  4160   0.123E+02
DAV:   4    -0.662256059538E+02   -0.13176E+01   -0.13164E+01  4000   0.176E+01
DAV:   5    -0.662341122454E+02   -0.85063E-02   -0.85061E-02  4440   0.996E-01    0.254E+01
DAV:   6    -0.604349024839E+02    0.57992E+01   -0.11983E+02  4180   0.797E+01    0.130E+01
DAV:   7    -0.547965487208E+02    0.56384E+01   -0.23605E+01  4380   0.431E+01    0.285E+00
DAV:   8    -0.549112712852E+02   -0.11472E+00   -0.41079E+00  4140   0.265E+01    0.254E+00
DAV:   9    -0.548812170826E+02    0.30054E-01   -0.13332E+00  4600   0.140E+01    0.235E+00
DAV:  10    -0.548289511902E+02    0.52266E-01   -0.68446E-01  4500   0.980E+00    0.191E+00
DAV:  11    -0.547644934800E+02    0.64458E-01   -0.42760E-01  4160   0.537E+00    0.497E-01
DAV:  12    -0.547741613424E+02   -0.96679E-02   -0.15599E-01  3980   0.365E+00    0.637E-01
DAV:  13    -0.547646441383E+02    0.95172E-02   -0.70756E-02  4120   0.296E+00    0.584E-01
DAV:  14    -0.547564015555E+02    0.82426E-02   -0.48554E-02  4260   0.296E+00    0.269E-01
DAV:  15    -0.547533159124E+02    0.30856E-02   -0.55842E-02  4800   0.273E+00    0.171E-01
DAV:  16    -0.547520102776E+02    0.13056E-02   -0.27180E-02  5100   0.158E+00    0.116E-01
DAV:  17    -0.547513489862E+02    0.66129E-03   -0.12494E-02  5040   0.999E-01    0.545E-02
DAV:  18    -0.547523709143E+02   -0.10219E-02   -0.30121E-03  3600   0.537E-01    0.752E-02
DAV:  19    -0.547548821225E+02   -0.25112E-02   -0.59236E-03  5800   0.851E-01    0.987E-02
DAV:  20    -0.547552654571E+02   -0.38333E-03   -0.65880E-04  4020   0.134E-01    0.106E-01
DAV:  21    -0.547548487053E+02    0.41675E-03   -0.56368E-04  4000   0.307E-01    0.752E-02
DAV:  22    -0.547546183431E+02    0.23036E-03   -0.57917E-03  5020   0.779E-01    0.144E-02
DAV:  23    -0.547547077379E+02   -0.89395E-04   -0.28172E-04  4000   0.113E-01    0.153E-02
DAV:  24    -0.547548699528E+02   -0.16221E-03   -0.41092E-04  3540   0.276E-01    0.301E-02
DAV:  25    -0.547548481775E+02    0.21775E-04   -0.35948E-05  3380   0.469E-02    0.252E-02
DAV:  26    -0.547547816552E+02    0.66522E-04   -0.22987E-04  2560   0.142E-01    0.143E-02
DAV:  27    -0.547547793282E+02    0.23270E-05   -0.47871E-05  3540   0.464E-02
   1 F= -.54754779E+02 E0= -.54754646E+02  d E =-.547548E+02
 curvature:   0.00 expect dE= 0.000E+00 dE for cont linesearch  0.000E+00
 trial: gam= 0.00000 g(F)=  0.273E-02 g(S)=  0.000E+00 ort = 0.000E+00 (trialstep = 0.100E+01)
 search vector abs. value=  0.273E-02
 bond charge predicted
       N       E                     dE             d eps       ncg     rms          rms(c)
DAV:   1    -0.547570123425E+02   -0.22307E-02   -0.13905E-01  3640   0.111E+00    0.285E-02
DAV:   2    -0.547570495855E+02   -0.37243E-04   -0.52205E-04  3900   0.194E-01    0.250E-02
DAV:   3    -0.547570504718E+02   -0.88636E-06   -0.13782E-04  4020   0.183E-01    0.164E-02
DAV:   4    -0.547570499197E+02    0.55213E-06   -0.46068E-05  3280   0.131E-01
   2 F= -.54757050E+02 E0= -.54756929E+02  d E =-.227059E-02
 ZBRENT: can't locate minimum, use default step
 trial-energy change:   -0.002271  1 .order   -0.002623   -0.002734   -0.002513
 step:   4.0000(harm= 12.3665)  dis= 0.00768  next Energy=   -54.771683 (dE=-0.169E-01)
 bond charge predicted
       N       E                     dE             d eps       ncg     rms          rms(c)
DAV:   1    -0.547638017663E+02   -0.67513E-02   -0.12522E+00  3600   0.333E+00    0.745E-02
DAV:   2    -0.547641911618E+02   -0.38940E-03   -0.50010E-03  3940   0.514E-01    0.682E-02
DAV:   3    -0.547641974404E+02   -0.62786E-05   -0.10607E-03  4000   0.531E-01    0.464E-02
DAV:   4    -0.547641867582E+02    0.10682E-04   -0.81090E-04  4260   0.500E-01    0.371E-02
DAV:   5    -0.547641461342E+02    0.40624E-04   -0.50528E-04  4220   0.380E-01    0.104E-02
DAV:   6    -0.547641415754E+02    0.45588E-05   -0.80366E-05  3300   0.104E-01
   3 F= -.54764142E+02 E0= -.54764054E+02  d E =-.936225E-02
 curvature:  -2.83 expect dE=-0.348E-02 dE for cont linesearch -0.347E-02
 ZBRENT: increasing intervall
 opt :  10.0000  next Energy=   -54.771019 (dE=-0.162E-01)
 bond charge predicted
       N       E                     dE             d eps       ncg     rms          rms(c)
DAV:   1    -0.547693994203E+02   -0.52533E-02   -0.50126E+00  3600   0.664E+00    0.149E-01
DAV:   2    -0.547708133621E+02   -0.14139E-02   -0.18374E-02  4180   0.984E-01    0.119E-01
DAV:   3    -0.547709414527E+02   -0.12809E-03   -0.53380E-03  4040   0.118E+00    0.104E-01
DAV:   4    -0.547708153939E+02    0.12606E-03   -0.35890E-03  4020   0.103E+00    0.701E-02
DAV:   5    -0.547706585092E+02    0.15688E-03   -0.12713E-03  5100   0.614E-01    0.130E-02
DAV:   6    -0.547706661577E+02   -0.76485E-05   -0.18923E-04  4500   0.129E-01    0.939E-03
DAV:   7    -0.547706673576E+02   -0.11999E-05   -0.41594E-05  3780   0.519E-02
   4 F= -.54770667E+02 E0= -.54770604E+02  d E =-.158880E-01
 curvature:  -5.62 expect dE=-0.459E-03 dE for cont linesearch -0.318E-03
 ZBRENT: extrapolating
 opt :  11.6436  next Energy=   -54.770991 (dE=-0.162E-01)
 bond charge predicted
       N       E                     dE             d eps       ncg     rms          rms(c)
DAV:   1    -0.547714574647E+02   -0.79131E-03   -0.37582E-01  3640   0.181E+00    0.411E-02
DAV:   2    -0.547715696022E+02   -0.11214E-03   -0.13941E-03  4160   0.294E-01    0.349E-02
DAV:   3    -0.547715776208E+02   -0.80186E-05   -0.39703E-04  4060   0.319E-01    0.268E-02
DAV:   4    -0.547715775926E+02    0.28267E-07   -0.24321E-04  3980   0.268E-01    0.206E-02
DAV:   5    -0.547715638329E+02    0.13760E-04   -0.10854E-04  2860   0.184E-01    0.338E-03
DAV:   6    -0.547715646287E+02   -0.79585E-06   -0.13233E-05  2380   0.346E-02
   5 F= -.54771565E+02 E0= -.54771507E+02  d E =-.167853E-01
 curvature:  -5.71 expect dE=-0.187E-03 dE for cont linesearch -0.122E-06
 trial: gam= 0.00916 g(F)=  0.327E-04 g(S)=  0.000E+00 ort = 0.765E-05 (trialstep = 0.313E+01)
 search vector abs. value=  0.331E-04
 bond charge predicted
       N       E                     dE             d eps       ncg     rms          rms(c)
DAV:   1    -0.547716694971E+02   -0.10566E-03   -0.16199E-02  3600   0.374E-01    0.840E-03
DAV:   2    -0.547716725987E+02   -0.31016E-05   -0.41026E-05  3980   0.687E-02
   6 F= -.54771673E+02 E0= -.54771616E+02  d E =-.107970E-03
 ZBRENT: can't locate minimum, use default step
 trial-energy change:   -0.000108  1 .order   -0.000100   -0.000102   -0.000098
 step:  12.5149(harm= 65.4559)  dis= 0.00000  next Energy=   -54.772637 (dE=-0.107E-02)
 bond charge predicted
       N       E                     dE             d eps       ncg     rms          rms(c)
DAV:   1    -0.547719565597E+02   -0.28706E-03   -0.14599E-01  3600   0.113E+00    0.289E-02
DAV:   2    -0.547719840437E+02   -0.27484E-04   -0.49758E-04  3960   0.303E-01    0.316E-02
DAV:   3    -0.547719719683E+02    0.12075E-04   -0.21463E-04  4040   0.245E-01    0.165E-02
DAV:   4    -0.547719731353E+02   -0.11670E-05   -0.13053E-04  3400   0.182E-01    0.150E-02
DAV:   5    -0.547719659015E+02    0.72338E-05   -0.56274E-05  2700   0.129E-01
   7 F= -.54771966E+02 E0= -.54771915E+02  d E =-.401273E-03
 curvature:  -9.20 expect dE=-0.206E-03 dE for cont linesearch -0.203E-03
 ZBRENT: increasing intervall
 opt :  31.2873  next Energy=   -54.772395 (dE=-0.830E-03)
 bond charge predicted
       N       E                     dE             d eps       ncg     rms          rms(c)
DAV:   1    -0.547722137688E+02   -0.24063E-03   -0.58334E-01  3600   0.224E+00    0.496E-02
DAV:   2    -0.547723276618E+02   -0.11389E-03   -0.18188E-03  3960   0.560E-01    0.575E-02
DAV:   3    -0.547722885208E+02    0.39141E-04   -0.67026E-04  4000   0.426E-01    0.277E-02
DAV:   4    -0.547722911139E+02   -0.25931E-05   -0.35598E-04  4120   0.290E-01    0.248E-02
DAV:   5    -0.547722692422E+02    0.21872E-04   -0.17460E-04  4160   0.225E-01    0.760E-03
DAV:   6    -0.547722726561E+02   -0.34139E-05   -0.42580E-05  3800   0.502E-02
   8 F= -.54772273E+02 E0= -.54772232E+02  d E =-.708027E-03
 curvature: -19.42 expect dE=-0.171E-03 dE for cont linesearch -0.166E-03
 ZBRENT: increasing intervall
 opt :  68.8320  next Energy=   -54.772519 (dE=-0.954E-03)
 bond charge predicted
       N       E                     dE             d eps       ncg     rms          rms(c)
DAV:   1    -0.547728649356E+02   -0.59569E-03   -0.23334E+00  3600   0.448E+00    0.101E-01
DAV:   2    -0.547732939504E+02   -0.42901E-03   -0.71595E-03  4080   0.109E+00    0.115E-01
DAV:   3    -0.547731430550E+02    0.15090E-03   -0.25438E-03  4040   0.830E-01    0.560E-02
DAV:   4    -0.547731445394E+02   -0.14844E-05   -0.14938E-03  4640   0.588E-01    0.495E-02
DAV:   5    -0.547730420972E+02    0.10244E-03   -0.76651E-04  4580   0.467E-01    0.163E-02
DAV:   6    -0.547730534679E+02   -0.11371E-04   -0.16863E-04  4080   0.108E-01    0.138E-02
DAV:   7    -0.547730512742E+02    0.21937E-05   -0.19916E-05  2700   0.454E-02
   9 F= -.54773051E+02 E0= -.54773011E+02  d E =-.148665E-02
 curvature: -28.85 expect dE=-0.227E-05 dE for cont linesearch -0.139E-05
 trial: gam= 0.00000 g(F)=  0.785E-07 g(S)=  0.000E+00 ort =-0.126E-05 (trialstep = 0.163E+02)
 search vector abs. value=  0.786E-07
 reached required accuracy - stopping structural energy minimisation
