 running on   35 total cores
 distrk:  each k-point on   35 cores,    1 groups
 distr:  one band on    1 cores,   35 groups
 using from now: INCAR     
 vasp.5.4.1 24Jun15 (build Oct 26 2018 17:15:27) complex                        
  
 POSCAR found type information on POSCAR  Ag O 
 POSCAR found :  2 types and       6 ions
 scaLAPACK will be used

 ----------------------------------------------------------------------------- 
|                                                                             |
|           W    W    AA    RRRRR   N    N  II  N    N   GGGG   !!!           |
|           W    W   A  A   R    R  NN   N  II  NN   N  G    G  !!!           |
|           W    W  A    A  R    R  N N  N  II  N N  N  G       !!!           |
|           W WW W  AAAAAA  RRRRR   N  N N  II  N  N N  G  GGG   !            |
|           WW  WW  A    A  R   R   N   NN  II  N   NN  G    G                |
|           W    W  A    A  R    R  N    N  II  N    N   GGGG   !!!           |
|                                                                             |
|      For optimal performance we recommend to set                            |
|        NCORE= 4 - approx SQRT( number of cores)                             |
|      NCORE specifies how many cores store one orbital (NPAR=cpu/NCORE).     |
|      This setting can  greatly improve the performance of VASP for DFT.     |
|      The default, NPAR=number of cores might be grossly inefficient         |
|      on modern multi-core architectures or massively parallel machines.     |
|      Do your own testing !!!!                                               |
|      Unfortunately you need to use the default for GW and RPA calculations. |
|      (for HF NCORE is supported but not extensively tested yet)             |
|                                                                             |
 ----------------------------------------------------------------------------- 

 LDA part: xc-table for Ceperly-Alder, standard interpolation
 POSCAR, INCAR and KPOINTS ok, starting setup
 WARNING: small aliasing (wrap around) errors must be expected
 FFT: planning ...
 WAVECAR not read
 entering main loop
       N       E                     dE             d eps       ncg     rms          rms(c)
DAV:   1     0.307565155611E+03    0.30757E+03   -0.29390E+04 11550   0.152E+03
DAV:   2    -0.155171003940E+02   -0.32308E+03   -0.32258E+03 12740   0.300E+02
DAV:   3    -0.255314598237E+02   -0.10014E+02   -0.10003E+02 12110   0.652E+01
DAV:   4    -0.256227860692E+02   -0.91326E-01   -0.91326E-01 21105   0.574E+00
DAV:   5    -0.256228011862E+02   -0.15117E-04   -0.15117E-04 12215   0.610E-02    0.120E+01
DAV:   6    -0.220604779753E+02    0.35623E+01   -0.51175E+01 11900   0.392E+01    0.660E+00
DAV:   7    -0.215253937522E+02    0.53508E+00   -0.51436E+00 15155   0.131E+01    0.190E+00
DAV:   8    -0.214820793625E+02    0.43314E-01   -0.20598E-01 12600   0.275E+00    0.495E-01
DAV:   9    -0.214807701167E+02    0.13092E-02   -0.12175E-02 18375   0.761E-01    0.115E-01
DAV:  10    -0.214811050289E+02   -0.33491E-03   -0.98640E-03 18375   0.485E-01    0.134E-01
DAV:  11    -0.214806899187E+02    0.41511E-03   -0.24802E-03 14175   0.241E-01    0.198E-02
DAV:  12    -0.214806900658E+02   -0.14704E-06   -0.26443E-04 16450   0.807E-02    0.194E-02
DAV:  13    -0.214806863423E+02    0.37235E-05   -0.37382E-05 12565   0.313E-02
   1 F= -.21480686E+02 E0= -.21480676E+02  d E =-.214807E+02
 curvature:   0.00 expect dE= 0.000E+00 dE for cont linesearch  0.000E+00
 trial: gam= 0.00000 g(F)=  0.102E-57 g(S)=  0.632E-03 ort = 0.000E+00 (trialstep = 0.100E+01)
 search vector abs. value=  0.632E-03
 bond charge predicted
       N       E                     dE             d eps       ncg     rms          rms(c)
DAV:   1    -0.214836784664E+02   -0.29884E-02   -0.52257E-02 11585   0.193E+00    0.313E-01
DAV:   2    -0.214813205449E+02    0.23579E-02   -0.16409E-02 11935   0.860E-01    0.446E-02
DAV:   3    -0.214812689800E+02    0.51565E-04   -0.45069E-04 14595   0.123E-01    0.282E-02
DAV:   4    -0.214812581219E+02    0.10858E-04   -0.51512E-05 12740   0.468E-02    0.146E-02
DAV:   5    -0.214812564601E+02    0.16618E-05   -0.11862E-05 14105   0.243E-02
   2 F= -.21481256E+02 E0= -.21481245E+02  d E =-.570118E-03
 ZBRENT: can't locate minimum, use default step
 trial-energy change:   -0.000570  1 .order   -0.000558   -0.000632   -0.000484
 step:   4.0000(harm=  4.2704)  dis= 0.00000  next Energy=   -21.482036 (dE=-0.135E-02)
 bond charge predicted
       N       E                     dE             d eps       ncg     rms          rms(c)
DAV:   1    -0.215040663041E+02   -0.22808E-01   -0.47187E-01 11655   0.580E+00    0.944E-01
DAV:   2    -0.214826853170E+02    0.21381E-01   -0.14940E-01 11900   0.259E+00    0.132E-01
DAV:   3    -0.214822135546E+02    0.47176E-03   -0.39120E-03 15050   0.363E-01    0.840E-02
DAV:   4    -0.214821019636E+02    0.11159E-03   -0.44587E-04 17220   0.138E-01    0.436E-02
DAV:   5    -0.214820573222E+02    0.44641E-04   -0.97848E-05 15190   0.722E-02    0.714E-03
DAV:   6    -0.214820559937E+02    0.13285E-05   -0.87818E-06  9380   0.175E-02
   3 F= -.21482056E+02 E0= -.21482044E+02  d E =-.136965E-02
 curvature:  -2.12 expect dE=-0.941E-05 dE for cont linesearch -0.941E-05
 trial: gam=-0.07677 g(F)=  0.102E-57 g(S)=  0.444E-05 ort = 0.530E-04 (trialstep = 0.160E+01)
 search vector abs. value=  0.313E-07
 reached required accuracy - stopping structural energy minimisation
 writing wavefunctions
