 running on   20 total cores
 distrk:  each k-point on   20 cores,    1 groups
 distr:  one band on    1 cores,   20 groups
 using from now: INCAR     
 vasp.5.4.1 05Feb16 (build Sep 02 2018 21:45:25) complex                        
  
 POSCAR found type information on POSCAR  Pt
 POSCAR found :  1 types and      13 ions
 scaLAPACK will be used

 ----------------------------------------------------------------------------- 
|                                                                             |
|           W    W    AA    RRRRR   N    N  II  N    N   GGGG   !!!           |
|           W    W   A  A   R    R  NN   N  II  NN   N  G    G  !!!           |
|           W    W  A    A  R    R  N N  N  II  N N  N  G       !!!           |
|           W WW W  AAAAAA  RRRRR   N  N N  II  N  N N  G  GGG   !            |
|           WW  WW  A    A  R   R   N   NN  II  N   NN  G    G                |
|           W    W  A    A  R    R  N    N  II  N    N   GGGG   !!!           |
|                                                                             |
|      For optimal performance we recommend to set                            |
|        NCORE= 4 - approx SQRT( number of cores)                             |
|      NCORE specifies how many cores store one orbital (NPAR=cpu/NCORE).     |
|      This setting can  greatly improve the performance of VASP for DFT.     |
|      The default, NPAR=number of cores might be grossly inefficient         |
|      on modern multi-core architectures or massively parallel machines.     |
|      Do your own testing !!!!                                               |
|      Unfortunately you need to use the default for GW and RPA calculations. |
|      (for HF NCORE is supported but not extensively tested yet)             |
|                                                                             |
 ----------------------------------------------------------------------------- 

 LDA part: xc-table for Ceperly-Alder, standard interpolation

 ----------------------------------------------------------------------------- 
|                                                                             |
|           W    W    AA    RRRRR   N    N  II  N    N   GGGG   !!!           |
|           W    W   A  A   R    R  NN   N  II  NN   N  G    G  !!!           |
|           W    W  A    A  R    R  N N  N  II  N N  N  G       !!!           |
|           W WW W  AAAAAA  RRRRR   N  N N  II  N  N N  G  GGG   !            |
|           WW  WW  A    A  R   R   N   NN  II  N   NN  G    G                |
|           W    W  A    A  R    R  N    N  II  N    N   GGGG   !!!           |
|                                                                             |
|      VASP found     36 degrees of freedom                                   |
|      the temperature will equal 2*E(kin)/ (degrees of freedom)              |
|      this differs from previous releases, where T was 2*E(kin)/(3 NIONS).   |
|      The new definition is more consistent                                  |
|                                                                             |
 ----------------------------------------------------------------------------- 

 POSCAR, INCAR and KPOINTS ok, starting setup
 WARNING: small aliasing (wrap around) errors must be expected
 FFT: planning ...
 WAVECAR not read
 prediction of wavefunctions initialized - no I/O
 entering main loop
       N       E                     dE             d eps       ncg     rms          rms(c)
DAV:   1     0.842371772922E+03    0.84237E+03   -0.11939E+04   200   0.374E+02
DAV:   2     0.490423450033E+03   -0.35195E+03   -0.34493E+03   320   0.506E+01
DAV:   3     0.131629729069E+03   -0.35879E+03   -0.34770E+03   300   0.524E+01
DAV:   4    -0.173668556880E+02   -0.14900E+03   -0.14629E+03   240   0.480E+01
DAV:   5    -0.537588064402E+02   -0.36392E+02   -0.34512E+02   220   0.237E+01    0.141E+01
DAV:   6    -0.565562235200E+02   -0.27974E+01   -0.92474E+01   220   0.244E+01    0.822E+00
DAV:   7    -0.571910475417E+02   -0.63482E+00   -0.39648E+01   300   0.262E+01    0.964E+00
DAV:   8    -0.564652291229E+02    0.72582E+00   -0.23455E+01   240   0.180E+01    0.666E+00
DAV:   9    -0.557227298495E+02    0.74250E+00   -0.44409E+00   240   0.938E+00    0.377E+00
DAV:  10    -0.555976992053E+02    0.12503E+00   -0.96803E-01   260   0.418E+00    0.318E+00
DAV:  11    -0.557249166149E+02   -0.12722E+00   -0.14202E+00   260   0.453E+00    0.300E+00
DAV:  12    -0.558053602796E+02   -0.80444E-01   -0.78125E-01   240   0.441E+00    0.222E+00
DAV:  13    -0.557634841523E+02    0.41876E-01   -0.33961E-01   240   0.349E+00    0.927E-01
DAV:  14    -0.557619538894E+02    0.15303E-02   -0.86056E-02   240   0.163E+00    0.442E-01
DAV:  15    -0.557614391685E+02    0.51472E-03   -0.15286E-02   200   0.573E-01    0.237E-01
DAV:  16    -0.557613794949E+02    0.59674E-04   -0.95665E-03   240   0.535E-01    0.244E-01
DAV:  17    -0.557605750082E+02    0.80449E-03   -0.53384E-03   220   0.381E-01    0.832E-02
DAV:  18    -0.557612541418E+02   -0.67913E-03   -0.13287E-03   200   0.179E-01    0.693E-02
DAV:  19    -0.557628714163E+02   -0.16173E-02   -0.90944E-04   200   0.138E-01    0.563E-02
DAV:  20    -0.557646751653E+02   -0.18037E-02   -0.48172E-04   180   0.110E-01    0.313E-02
DAV:  21    -0.557676405825E+02   -0.29654E-02   -0.67823E-04   180   0.915E-02    0.221E-02
DAV:  22    -0.557693693962E+02   -0.17288E-02   -0.30253E-04   200   0.632E-02    0.163E-02
DAV:  23    -0.557708386860E+02   -0.14693E-02   -0.25596E-04   200   0.519E-02    0.153E-02
DAV:  24    -0.557713908082E+02   -0.55212E-03   -0.64858E-05   180   0.345E-02    0.927E-03
DAV:  25    -0.557720061225E+02   -0.61531E-03   -0.47637E-05   180   0.254E-02    0.612E-03
DAV:  26    -0.557723779153E+02   -0.37179E-03   -0.17546E-05   140   0.184E-02    0.401E-03
DAV:  27    -0.557727952573E+02   -0.41734E-03   -0.27657E-05   140   0.164E-02    0.294E-03
DAV:  28    -0.557730397418E+02   -0.24448E-03   -0.19563E-05   120   0.126E-02    0.157E-03
DAV:  29    -0.557731435596E+02   -0.10382E-03   -0.92659E-06   120   0.900E-03    0.944E-04
DAV:  30    -0.557731697492E+02   -0.26190E-04   -0.34442E-06   120   0.493E-03    0.804E-04
DAV:  31    -0.557731875142E+02   -0.17765E-04   -0.20861E-06   100   0.444E-03    0.484E-04
DAV:  32    -0.557731945328E+02   -0.70187E-05   -0.10601E-06   120   0.265E-03
    1 T=  1996. E= -.52677392E+02 F= -.55773195E+02 E0= -.55691974E+02  EK= 0.30958E+01 SP= 0.00E+00 SK= 0.41E-07
 bond charge predicted
       N       E                     dE             d eps       ncg     rms          rms(c)
DAV:   1    -0.538434850711E+02    0.19297E+01   -0.77818E+02   160   0.876E+01    0.458E+00
DAV:   2    -0.559923719903E+02   -0.21489E+01   -0.23750E+01   220   0.211E+01    0.826E+00
DAV:   3    -0.550701429017E+02    0.92223E+00   -0.89397E+00   220   0.144E+01    0.426E+00
DAV:   4    -0.548544808771E+02    0.21566E+00   -0.18213E+00   220   0.582E+00    0.244E+00
DAV:   5    -0.548176718840E+02    0.36809E-01   -0.71496E-01   220   0.308E+00    0.188E+00
DAV:   6    -0.548173832615E+02    0.28862E-03   -0.44171E-01   220   0.275E+00    0.152E+00
DAV:   7    -0.548099635926E+02    0.74197E-02   -0.35366E-01   240   0.278E+00    0.933E-01
DAV:   8    -0.548034777340E+02    0.64859E-02   -0.11660E-01   220   0.198E+00    0.507E-01
DAV:   9    -0.548016793550E+02    0.17984E-02   -0.27825E-02   240   0.878E-01    0.318E-01
DAV:  10    -0.548006144357E+02    0.10649E-02   -0.12214E-02   240   0.570E-01    0.190E-01
DAV:  11    -0.548005052333E+02    0.10920E-03   -0.47914E-03   220   0.348E-01    0.135E-01
DAV:  12    -0.548003012496E+02    0.20398E-03   -0.17191E-03   200   0.221E-01    0.521E-02
DAV:  13    -0.548003739945E+02   -0.72745E-04   -0.21442E-04   240   0.842E-02    0.302E-02
DAV:  14    -0.548004859590E+02   -0.11196E-03   -0.89227E-05   180   0.541E-02    0.217E-02
DAV:  15    -0.548005632072E+02   -0.77248E-04   -0.32962E-05   120   0.374E-02    0.121E-02
DAV:  16    -0.548006503626E+02   -0.87155E-04   -0.26716E-05   120   0.277E-02    0.920E-03
DAV:  17    -0.548007011337E+02   -0.50771E-04   -0.10607E-05   120   0.183E-02    0.426E-03
DAV:  18    -0.548007617038E+02   -0.60570E-04   -0.11619E-05   120   0.120E-02    0.396E-03
DAV:  19    -0.548008359533E+02   -0.74250E-04   -0.15149E-05   120   0.115E-02    0.241E-03
DAV:  20    -0.548008813956E+02   -0.45442E-04   -0.96255E-06   140   0.810E-03    0.178E-03
DAV:  21    -0.548009063110E+02   -0.24915E-04   -0.39976E-06   100   0.647E-03    0.138E-03
DAV:  22    -0.548009249934E+02   -0.18682E-04   -0.78109E-06   140   0.605E-03    0.682E-04
DAV:  23    -0.548009301603E+02   -0.51670E-05   -0.10034E-06   140   0.318E-03
    2 T=  1438. E= -.52570197E+02 F= -.54800930E+02 E0= -.54715731E+02  EK= 0.22301E+01 SP= -.16E-03 SK= 0.78E-03
 bond charge predicted
 prediction of wavefunctions
       N       E                     dE             d eps       ncg     rms          rms(c)
DAV:   1    -0.535762784112E+02    0.12246E+01   -0.16760E+02   160   0.467E+01    0.192E+00
DAV:   2    -0.539035961324E+02   -0.32732E+00   -0.39307E+00   220   0.836E+00    0.199E+00
DAV:   3    -0.538660815083E+02    0.37515E-01   -0.63811E-01   240   0.454E+00    0.165E+00
DAV:   4    -0.538492550678E+02    0.16826E-01   -0.41688E-01   220   0.241E+00    0.134E+00
DAV:   5    -0.538470445031E+02    0.22106E-02   -0.22169E-01   200   0.152E+00    0.103E+00
DAV:   6    -0.538519279336E+02   -0.48834E-02   -0.17848E-01   200   0.162E+00    0.884E-01
DAV:   7    -0.538467385667E+02    0.51894E-02   -0.75485E-02   220   0.129E+00    0.346E-01
DAV:   8    -0.538455602948E+02    0.11783E-02   -0.10887E-02   220   0.632E-01    0.150E-01
DAV:   9    -0.538455761381E+02   -0.15843E-04   -0.21099E-03   200   0.253E-01    0.870E-02
DAV:  10    -0.538454983747E+02    0.77763E-04   -0.91374E-04   260   0.166E-01    0.463E-02
DAV:  11    -0.538455198770E+02   -0.21502E-04   -0.43671E-04   220   0.104E-01    0.341E-02
DAV:  12    -0.538455218503E+02   -0.19733E-05   -0.17201E-04   160   0.689E-02    0.199E-02
DAV:  13    -0.538455298860E+02   -0.80357E-05   -0.45631E-05   120   0.383E-02
    3 T=   923. E= -.52424717E+02 F= -.53845530E+02 E0= -.53760738E+02  EK= 0.14310E+01 SP= -.22E-01 SK= 0.12E-01
 bond charge predicted
 prediction of wavefunctions
       N       E                     dE             d eps       ncg     rms          rms(c)
DAV:   1    -0.542402881472E+02   -0.39477E+00   -0.15056E+02   160   0.531E+01    0.229E+00
DAV:   2    -0.545079263700E+02   -0.26764E+00   -0.31486E+00   200   0.685E+00    0.255E+00
DAV:   3    -0.544571252930E+02    0.50801E-01   -0.14586E+00   260   0.491E+00    0.250E+00
DAV:   4    -0.544463259840E+02    0.10799E-01   -0.10188E+00   240   0.309E+00    0.195E+00
DAV:   5    -0.544413490695E+02    0.49769E-02   -0.36047E-01   220   0.226E+00    0.103E+00
DAV:   6    -0.544541428993E+02   -0.12794E-01   -0.18523E-01   260   0.215E+00    0.850E-01
DAV:   7    -0.544470823701E+02    0.70605E-02   -0.66973E-02   220   0.136E+00    0.293E-01
DAV:   8    -0.544472888119E+02   -0.20644E-03   -0.14462E-02   220   0.654E-01    0.192E-01
DAV:   9    -0.544469857807E+02    0.30303E-03   -0.43711E-03   260   0.336E-01    0.105E-01
DAV:  10    -0.544469555813E+02    0.30199E-04   -0.11730E-03   260   0.200E-01    0.614E-02
DAV:  11    -0.544469951342E+02   -0.39553E-04   -0.55850E-04   240   0.122E-01    0.463E-02
DAV:  12    -0.544470359768E+02   -0.40843E-04   -0.30658E-04   220   0.830E-02    0.325E-02
DAV:  13    -0.544470465041E+02   -0.10527E-04   -0.79618E-05   140   0.492E-02    0.108E-02
DAV:  14    -0.544470797629E+02   -0.33259E-04   -0.15243E-05   140   0.226E-02    0.740E-03
DAV:  15    -0.544471228981E+02   -0.43135E-04   -0.79445E-06   140   0.145E-02    0.376E-03
DAV:  16    -0.544471422725E+02   -0.19374E-04   -0.34703E-06   140   0.908E-03    0.264E-03
DAV:  17    -0.544471714752E+02   -0.29203E-04   -0.33039E-06   140   0.678E-03    0.162E-03
DAV:  18    -0.544471912219E+02   -0.19747E-04   -0.24698E-06   140   0.514E-03    0.130E-03
DAV:  19    -0.544472121212E+02   -0.20899E-04   -0.24288E-06   120   0.484E-03    0.776E-04
DAV:  20    -0.544472261789E+02   -0.14058E-04   -0.22266E-06   140   0.384E-03    0.688E-04
DAV:  21    -0.544472358374E+02   -0.96585E-05   -0.17959E-06   100   0.375E-03
    4 T=  1216. E= -.52606925E+02 F= -.54447236E+02 E0= -.54370145E+02  EK= 0.18856E+01 SP= -.85E-01 SK= 0.40E-01
 bond charge predicted
 prediction of wavefunctions
       N       E                     dE             d eps       ncg     rms          rms(c)
DAV:   1    -0.542598969322E+02    0.18733E+00   -0.61041E+01   160   0.321E+01    0.208E+00
DAV:   2    -0.546922894280E+02   -0.43239E+00   -0.40180E+00   200   0.763E+00    0.544E+00
DAV:   3    -0.543041232197E+02    0.38817E+00   -0.32149E+00   220   0.615E+00    0.158E+00
DAV:   4    -0.543584500424E+02   -0.54327E-01   -0.36310E-01   240   0.265E+00    0.142E+00
DAV:   5    -0.543502416436E+02    0.82084E-02   -0.30097E-01   240   0.214E+00    0.103E+00
DAV:   6    -0.543548421597E+02   -0.46005E-02   -0.13644E-01   240   0.171E+00    0.763E-01
DAV:   7    -0.543538108583E+02    0.10313E-02   -0.67580E-02   240   0.124E+00    0.408E-01
DAV:   8    -0.543530419716E+02    0.76889E-03   -0.20597E-02   240   0.783E-01    0.195E-01
DAV:   9    -0.543528756755E+02    0.16630E-03   -0.69740E-03   220   0.394E-01    0.133E-01
DAV:  10    -0.543527190050E+02    0.15667E-03   -0.21912E-03   240   0.227E-01    0.642E-02
DAV:  11    -0.543527209307E+02   -0.19258E-05   -0.47833E-04   240   0.121E-01    0.334E-02
DAV:  12    -0.543527538731E+02   -0.32942E-04   -0.12579E-04   240   0.685E-02    0.223E-02
DAV:  13    -0.543527782242E+02   -0.24351E-04   -0.33886E-05   140   0.419E-02    0.105E-02
DAV:  14    -0.543528028335E+02   -0.24609E-04   -0.12661E-05   140   0.212E-02    0.643E-03
DAV:  15    -0.543528341709E+02   -0.31337E-04   -0.88910E-06   140   0.162E-02    0.444E-03
DAV:  16    -0.543528493657E+02   -0.15195E-04   -0.40130E-06   140   0.102E-02    0.257E-03
DAV:  17    -0.543528697695E+02   -0.20404E-04   -0.34689E-06   140   0.726E-03    0.201E-03
DAV:  18    -0.543528834128E+02   -0.13643E-04   -0.25632E-06   140   0.589E-03    0.139E-03
DAV:  19    -0.543529017164E+02   -0.18304E-04   -0.37280E-06   140   0.558E-03    0.878E-04
DAV:  20    -0.543529090096E+02   -0.72932E-05   -0.21533E-06   140   0.389E-03
    5 T=  1227. E= -.52552418E+02 F= -.54352909E+02 E0= -.54277603E+02  EK= 0.19027E+01 SP= -.18E+00 SK= 0.76E-01
Information: wavefunction orthogonal band   80  0.7011
 bond charge predicted
 prediction of wavefunctions
       N       E                     dE             d eps       ncg     rms          rms(c)
DAV:   1    -0.537954518186E+02    0.55745E+00   -0.54046E+01   160   0.290E+01    0.148E+00
DAV:   2    -0.539525187658E+02   -0.15707E+00   -0.16713E+00   200   0.509E+00    0.237E+00
DAV:   3    -0.538932845587E+02    0.59234E-01   -0.85910E-01   240   0.373E+00    0.141E+00
DAV:   4    -0.539033182543E+02   -0.10034E-01   -0.25292E-01   240   0.196E+00    0.132E+00
DAV:   5    -0.538914269156E+02    0.11891E-01   -0.18232E-01   220   0.160E+00    0.753E-01
DAV:   6    -0.539084956385E+02   -0.17069E-01   -0.12606E-01   200   0.138E+00    0.959E-01
DAV:   7    -0.539003809126E+02    0.81147E-02   -0.96225E-02   200   0.115E+00    0.338E-01
DAV:   8    -0.539011873023E+02   -0.80639E-03   -0.14788E-02   240   0.608E-01    0.186E-01
DAV:   9    -0.539008266777E+02    0.36062E-03   -0.26696E-03   220   0.284E-01    0.782E-02
DAV:  10    -0.539008218571E+02    0.48206E-05   -0.46681E-04   240   0.136E-01    0.459E-02
DAV:  11    -0.539008522147E+02   -0.30358E-04   -0.26891E-04   220   0.883E-02    0.380E-02
DAV:  12    -0.539008534959E+02   -0.12812E-05   -0.81585E-05   100   0.548E-02
    6 T=  1023. E= -.52484608E+02 F= -.53900853E+02 E0= -.53822695E+02  EK= 0.15870E+01 SP= -.30E+00 SK= 0.13E+00
 bond charge predicted
 prediction of wavefunctions
       N       E                     dE             d eps       ncg     rms          rms(c)
DAV:   1    -0.538521024640E+02    0.48750E-01   -0.76490E+01   160   0.345E+01    0.212E+00
DAV:   2    -0.542588110357E+02   -0.40671E+00   -0.37135E+00   240   0.782E+00    0.455E+00
DAV:   3    -0.539554326853E+02    0.30338E+00   -0.15027E+00   240   0.600E+00    0.157E+00
DAV:   4    -0.539752434489E+02   -0.19811E-01   -0.21479E-01   220   0.247E+00    0.120E+00
DAV:   5    -0.539793215273E+02   -0.40781E-02   -0.18896E-01   260   0.185E+00    0.114E+00
DAV:   6    -0.539815169147E+02   -0.21954E-02   -0.20374E-01   240   0.172E+00    0.875E-01
DAV:   7    -0.539795039759E+02    0.20129E-02   -0.55491E-02   240   0.113E+00    0.414E-01
DAV:   8    -0.539788523742E+02    0.65160E-03   -0.17505E-02   200   0.655E-01    0.221E-01
DAV:   9    -0.539786351271E+02    0.21725E-03   -0.45512E-03   220   0.347E-01    0.119E-01
DAV:  10    -0.539785656440E+02    0.69483E-04   -0.17544E-03   220   0.223E-01    0.750E-02
DAV:  11    -0.539785535401E+02    0.12104E-04   -0.45922E-04   220   0.115E-01    0.313E-02
DAV:  12    -0.539785677974E+02   -0.14257E-04   -0.99184E-05   180   0.622E-02    0.154E-02
DAV:  13    -0.539785949471E+02   -0.27150E-04   -0.21901E-05   120   0.306E-02    0.922E-03
DAV:  14    -0.539786217192E+02   -0.26772E-04   -0.11676E-05   120   0.213E-02    0.876E-03
DAV:  15    -0.539786383048E+02   -0.16586E-04   -0.60584E-06   140   0.138E-02    0.357E-03
DAV:  16    -0.539786660966E+02   -0.27792E-04   -0.36016E-06   100   0.702E-03    0.226E-03
DAV:  17    -0.539786807259E+02   -0.14629E-04   -0.20876E-06   120   0.588E-03    0.193E-03
DAV:  18    -0.539787037382E+02   -0.23012E-04   -0.27374E-06   100   0.558E-03    0.145E-03
DAV:  19    -0.539787185368E+02   -0.14799E-04   -0.23504E-06   120   0.465E-03    0.862E-04
DAV:  20    -0.539787320591E+02   -0.13522E-04   -0.21152E-06   120   0.405E-03    0.628E-04
DAV:  21    -0.539787397688E+02   -0.77097E-05   -0.20101E-06   120   0.314E-03
    7 T=  1103. E= -.52524708E+02 F= -.53978740E+02 E0= -.53898626E+02  EK= 0.17104E+01 SP= -.46E+00 SK= 0.20E+00
 bond charge predicted
 prediction of wavefunctions
       N       E                     dE             d eps       ncg     rms          rms(c)
DAV:   1    -0.540045516723E+02   -0.25820E-01   -0.31623E+01   160   0.241E+01    0.119E+00
DAV:   2    -0.541109497580E+02   -0.10640E+00   -0.11193E+00   220   0.449E+00    0.218E+00
DAV:   3    -0.540621083318E+02    0.48841E-01   -0.70195E-01   220   0.289E+00    0.119E+00
DAV:   4    -0.540707235543E+02   -0.86152E-02   -0.20790E-01   220   0.149E+00    0.883E-01
DAV:   5    -0.540697102540E+02    0.10133E-02   -0.92445E-02   220   0.123E+00    0.678E-01
DAV:   6    -0.540752750791E+02   -0.55648E-02   -0.63962E-02   240   0.101E+00    0.756E-01
DAV:   7    -0.540738077877E+02    0.14673E-02   -0.49971E-02   220   0.897E-01    0.453E-01
DAV:   8    -0.540722078420E+02    0.15999E-02   -0.14833E-02   220   0.554E-01    0.109E-01
DAV:   9    -0.540723677609E+02   -0.15992E-03   -0.13886E-03   200   0.173E-01    0.650E-02
DAV:  10    -0.540723338227E+02    0.33938E-04   -0.44223E-04   260   0.120E-01    0.292E-02
DAV:  11    -0.540723497966E+02   -0.15974E-04   -0.85596E-05   140   0.521E-02    0.149E-02
DAV:  12    -0.540723680875E+02   -0.18291E-04   -0.28649E-05   120   0.337E-02    0.111E-02
DAV:  13    -0.540723844451E+02   -0.16358E-04   -0.14265E-05   100   0.242E-02    0.726E-03
DAV:  14    -0.540723971117E+02   -0.12667E-04   -0.79050E-06   120   0.149E-02    0.511E-03
DAV:  15    -0.540724046230E+02   -0.75113E-05   -0.38624E-06   100   0.101E-02
    8 T=  1214. E= -.52559215E+02 F= -.54072405E+02 E0= -.53991650E+02  EK= 0.18828E+01 SP= -.66E+00 SK= 0.29E+00
 bond charge predicted
 prediction of wavefunctions
       N       E                     dE             d eps       ncg     rms          rms(c)
DAV:   1    -0.535382082628E+02    0.53419E+00   -0.29242E+01   160   0.230E+01    0.132E+00
DAV:   2    -0.536707871062E+02   -0.13258E+00   -0.14141E+00   220   0.488E+00    0.273E+00
DAV:   3    -0.535761118871E+02    0.94675E-01   -0.72901E-01   220   0.352E+00    0.122E+00
DAV:   4    -0.536070777136E+02   -0.30966E-01   -0.15726E-01   220   0.155E+00    0.136E+00
DAV:   5    -0.535895888427E+02    0.17489E-01   -0.18042E-01   240   0.121E+00    0.708E-01
DAV:   6    -0.536029455180E+02   -0.13357E-01   -0.75269E-02   220   0.109E+00    0.704E-01
DAV:   7    -0.535996885897E+02    0.32569E-02   -0.52147E-02   220   0.932E-01    0.368E-01
DAV:   8    -0.535995281031E+02    0.16049E-03   -0.15336E-02   220   0.548E-01    0.157E-01
DAV:   9    -0.535994603394E+02    0.67764E-04   -0.37158E-03   220   0.262E-01    0.101E-01
DAV:  10    -0.535994286224E+02    0.31717E-04   -0.10572E-03   260   0.149E-01    0.490E-02
DAV:  11    -0.535994453836E+02   -0.16761E-04   -0.24728E-04   220   0.751E-02    0.344E-02
DAV:  12    -0.535994662251E+02   -0.20842E-04   -0.81495E-05   120   0.472E-02    0.194E-02
DAV:  13    -0.535994805026E+02   -0.14277E-04   -0.25806E-05   140   0.310E-02    0.124E-02
DAV:  14    -0.535995031077E+02   -0.22605E-04   -0.92872E-06   100   0.150E-02    0.672E-03
DAV:  15    -0.535995130845E+02   -0.99768E-05   -0.42452E-06   120   0.115E-02
    9 T=  1020. E= -.52511562E+02 F= -.53599513E+02 E0= -.53523134E+02  EK= 0.15829E+01 SP= -.88E+00 SK= 0.39E+00
 bond charge predicted
 prediction of wavefunctions
       N       E                     dE             d eps       ncg     rms          rms(c)
DAV:   1    -0.530725716527E+02    0.52693E+00   -0.37777E+01   160   0.228E+01    0.147E+00
DAV:   2    -0.532505607384E+02   -0.17799E+00   -0.18180E+00   220   0.518E+00    0.313E+00
DAV:   3    -0.531304544672E+02    0.12011E+00   -0.12764E+00   220   0.454E+00    0.177E+00
DAV:   4    -0.531291207840E+02    0.13337E-02   -0.36515E-01   200   0.193E+00    0.128E+00
DAV:   5    -0.531242062875E+02    0.49145E-02   -0.12257E-01   200   0.141E+00    0.517E-01
DAV:   6    -0.531333758002E+02   -0.91695E-02   -0.71579E-02   220   0.106E+00    0.710E-01
DAV:   7    -0.531294004046E+02    0.39754E-02   -0.62818E-02   220   0.896E-01    0.334E-01
DAV:   8    -0.531296383376E+02   -0.23793E-03   -0.15193E-02   220   0.511E-01    0.147E-01
DAV:   9    -0.531297585660E+02   -0.12023E-03   -0.34513E-03   260   0.276E-01    0.110E-01
DAV:  10    -0.531296325803E+02    0.12599E-03   -0.14452E-03   240   0.180E-01    0.534E-02
DAV:  11    -0.531296576583E+02   -0.25078E-04   -0.43105E-04   220   0.969E-02    0.387E-02
DAV:  12    -0.531296569642E+02    0.69407E-06   -0.13308E-04   140   0.593E-02    0.188E-02
DAV:  13    -0.531296655513E+02   -0.85871E-05   -0.26377E-05   140   0.257E-02
   10 T=   820. E= -.52473146E+02 F= -.53129666E+02 E0= -.53059981E+02  EK= 0.12721E+01 SP= -.11E+01 SK= 0.53E+00
 bond charge predicted
 prediction of wavefunctions
       N       E                     dE             d eps       ncg     rms          rms(c)
DAV:   1    -0.531348770965E+02   -0.52201E-02   -0.46364E+01   160   0.264E+01    0.174E+00
DAV:   2    -0.533338366940E+02   -0.19896E+00   -0.19178E+00   220   0.578E+00    0.326E+00
DAV:   3    -0.531951898222E+02    0.13865E+00   -0.12963E+00   240   0.488E+00    0.184E+00
DAV:   4    -0.532099389952E+02   -0.14749E-01   -0.57851E-01   240   0.231E+00    0.150E+00
DAV:   5    -0.531936064334E+02    0.16333E-01   -0.28703E-01   240   0.184E+00    0.854E-01
DAV:   6    -0.532002922350E+02   -0.66858E-02   -0.10139E-01   200   0.123E+00    0.618E-01
DAV:   7    -0.531998885774E+02    0.40366E-03   -0.51785E-02   220   0.893E-01    0.401E-01
DAV:   8    -0.531989854298E+02    0.90315E-03   -0.22584E-02   220   0.650E-01    0.207E-01
DAV:   9    -0.531990859005E+02   -0.10047E-03   -0.58590E-03   260   0.340E-01    0.125E-01
DAV:  10    -0.531990363261E+02    0.49574E-04   -0.22740E-03   240   0.218E-01    0.735E-02
DAV:  11    -0.531990204458E+02    0.15880E-04   -0.63266E-04   260   0.104E-01    0.377E-02
DAV:  12    -0.531990834243E+02   -0.62979E-04   -0.15504E-04   160   0.584E-02    0.262E-02
DAV:  13    -0.531991356187E+02   -0.52194E-04   -0.48089E-05   120   0.378E-02    0.122E-02
DAV:  14    -0.531991905832E+02   -0.54965E-04   -0.14917E-05   120   0.209E-02    0.913E-03
DAV:  15    -0.531992439849E+02   -0.53402E-04   -0.75439E-06   120   0.153E-02    0.554E-03
DAV:  16    -0.531992922572E+02   -0.48272E-04   -0.52172E-06   120   0.103E-02    0.336E-03
DAV:  17    -0.531993461735E+02   -0.53916E-04   -0.53510E-06   120   0.836E-03    0.173E-03
DAV:  18    -0.531993869099E+02   -0.40736E-04   -0.43316E-06   120   0.673E-03    0.161E-03
DAV:  19    -0.531994301088E+02   -0.43199E-04   -0.83303E-06   120   0.709E-03    0.130E-03
DAV:  20    -0.531994461191E+02   -0.16010E-04   -0.16748E-06   120   0.367E-03    0.933E-04
DAV:  21    -0.531994531143E+02   -0.69952E-05   -0.10935E-06   120   0.316E-03
   11 T=   930. E= -.52507584E+02 F= -.53199453E+02 E0= -.53127157E+02  EK= 0.14426E+01 SP= -.14E+01 SK= 0.70E+00
 bond charge predicted
 prediction of wavefunctions
       N       E                     dE             d eps       ncg     rms          rms(c)
DAV:   1    -0.533355069986E+02   -0.13606E+00   -0.40323E+01   160   0.256E+01    0.184E+00
DAV:   2    -0.535771853679E+02   -0.24168E+00   -0.27415E+00   240   0.701E+00    0.376E+00
DAV:   3    -0.533763902764E+02    0.20080E+00   -0.16591E+00   240   0.546E+00    0.167E+00
DAV:   4    -0.533827671089E+02   -0.63768E-02   -0.33643E-01   220   0.221E+00    0.979E-01
DAV:   5    -0.533852774760E+02   -0.25104E-02   -0.15437E-01   200   0.142E+00    0.758E-01
DAV:   6    -0.533861698363E+02   -0.89236E-03   -0.86796E-02   220   0.111E+00    0.599E-01
DAV:   7    -0.533882034474E+02   -0.20336E-02   -0.74844E-02   260   0.949E-01    0.598E-01
DAV:   8    -0.533855621979E+02    0.26412E-02   -0.43243E-02   220   0.698E-01    0.336E-01
DAV:   9    -0.533850938564E+02    0.46834E-03   -0.99397E-03   220   0.382E-01    0.981E-02
DAV:  10    -0.533853032513E+02   -0.20939E-03   -0.14727E-03   220   0.172E-01    0.705E-02
DAV:  11    -0.533852918466E+02    0.11405E-04   -0.80680E-04   240   0.126E-01    0.500E-02
DAV:  12    -0.533852811982E+02    0.10648E-04   -0.23707E-04   140   0.672E-02    0.173E-02
DAV:  13    -0.533853048562E+02   -0.23658E-04   -0.51435E-05   100   0.337E-02    0.136E-02
DAV:  14    -0.533853224036E+02   -0.17547E-04   -0.18815E-05   120   0.248E-02    0.596E-03
DAV:  15    -0.533853467140E+02   -0.24310E-04   -0.62207E-06   100   0.109E-02    0.354E-03
DAV:  16    -0.533853591213E+02   -0.12407E-04   -0.27747E-06   120   0.951E-03    0.212E-03
DAV:  17    -0.533853779268E+02   -0.18805E-04   -0.27656E-06   100   0.599E-03    0.126E-03
DAV:  18    -0.533853883289E+02   -0.10402E-04   -0.17498E-06   120   0.441E-03    0.988E-04
DAV:  19    -0.533854000397E+02   -0.11711E-04   -0.17657E-06   100   0.420E-03    0.607E-04
DAV:  20    -0.533854083427E+02   -0.83030E-05   -0.20560E-06   120   0.344E-03
   12 T=  1159. E= -.52521268E+02 F= -.53385408E+02 E0= -.53302785E+02  EK= 0.17970E+01 SP= -.18E+01 SK= 0.87E+00
 bond charge predicted
 prediction of wavefunctions
       N       E                     dE             d eps       ncg     rms          rms(c)
DAV:   1    -0.532966224869E+02    0.88778E-01   -0.51975E+01   160   0.299E+01    0.158E+00
DAV:   2    -0.534855016109E+02   -0.18888E+00   -0.20244E+00   220   0.570E+00    0.322E+00
DAV:   3    -0.533640877841E+02    0.12141E+00   -0.13069E+00   220   0.439E+00    0.158E+00
DAV:   4    -0.533853546245E+02   -0.21267E-01   -0.38214E-01   240   0.211E+00    0.135E+00
DAV:   5    -0.533729154196E+02    0.12439E-01   -0.22693E-01   220   0.150E+00    0.813E-01
DAV:   6    -0.533824082585E+02   -0.94928E-02   -0.12718E-01   220   0.124E+00    0.720E-01
DAV:   7    -0.533822665393E+02    0.14172E-03   -0.65682E-02   260   0.107E+00    0.411E-01
DAV:   8    -0.533814828089E+02    0.78373E-03   -0.24712E-02   240   0.669E-01    0.217E-01
DAV:   9    -0.533811603098E+02    0.32250E-03   -0.48437E-03   200   0.300E-01    0.976E-02
DAV:  10    -0.533811914840E+02   -0.31174E-04   -0.99446E-04   220   0.147E-01    0.513E-02
DAV:  11    -0.533812097850E+02   -0.18301E-04   -0.40484E-04   240   0.924E-02    0.412E-02
DAV:  12    -0.533812147884E+02   -0.50034E-05   -0.21610E-04   140   0.594E-02    0.262E-02
DAV:  13    -0.533812247216E+02   -0.99332E-05   -0.54154E-05   140   0.353E-02
   13 T=  1324. E= -.52495980E+02 F= -.53381225E+02 E0= -.53292657E+02  EK= 0.20542E+01 SP= -.22E+01 SK= 0.10E+01
 bond charge predicted
 prediction of wavefunctions
       N       E                     dE             d eps       ncg     rms          rms(c)
DAV:   1    -0.532618269762E+02    0.11939E+00   -0.56143E+01   160   0.315E+01    0.163E+00
DAV:   2    -0.534211920943E+02   -0.15937E+00   -0.18095E+00   220   0.559E+00    0.247E+00
DAV:   3    -0.533442469787E+02    0.76945E-01   -0.86346E-01   240   0.407E+00    0.149E+00
DAV:   4    -0.533505187832E+02   -0.62718E-02   -0.29558E-01   240   0.217E+00    0.109E+00
DAV:   5    -0.533534560675E+02   -0.29373E-02   -0.19164E-01   260   0.158E+00    0.972E-01
DAV:   6    -0.533520729809E+02    0.13831E-02   -0.12777E-01   240   0.127E+00    0.697E-01
DAV:   7    -0.533543481393E+02   -0.22752E-02   -0.50717E-02   220   0.900E-01    0.358E-01
DAV:   8    -0.533535021986E+02    0.84594E-03   -0.13976E-02   260   0.574E-01    0.153E-01
DAV:   9    -0.533535171139E+02   -0.14915E-04   -0.31002E-03   220   0.270E-01    0.108E-01
DAV:  10    -0.533534359779E+02    0.81136E-04   -0.14823E-03   260   0.168E-01    0.575E-02
DAV:  11    -0.533534224406E+02    0.13537E-04   -0.42457E-04   240   0.998E-02    0.282E-02
DAV:  12    -0.533534475093E+02   -0.25069E-04   -0.99238E-05   160   0.472E-02    0.152E-02
DAV:  13    -0.533534594920E+02   -0.11983E-04   -0.33595E-05   140   0.316E-02    0.856E-03
DAV:  14    -0.533534759773E+02   -0.16485E-04   -0.10413E-05   140   0.172E-02    0.489E-03
DAV:  15    -0.533534951264E+02   -0.19149E-04   -0.42731E-06   140   0.107E-02    0.231E-03
DAV:  16    -0.533535079579E+02   -0.12832E-04   -0.22296E-06   140   0.643E-03    0.215E-03
DAV:  17    -0.533535220899E+02   -0.14132E-04   -0.18198E-06   140   0.575E-03    0.136E-03
DAV:  18    -0.533535320155E+02   -0.99256E-05   -0.13046E-06   140   0.393E-03
   14 T=  1486. E= -.52502752E+02 F= -.53353532E+02 E0= -.53269521E+02  EK= 0.23048E+01 SP= -.26E+01 SK= 0.11E+01
Information: wavefunction orthogonal band   80  0.8552
 bond charge predicted
 prediction of wavefunctions
       N       E                     dE             d eps       ncg     rms          rms(c)
DAV:   1    -0.530277717853E+02    0.32575E+00   -0.58351E+01   160   0.315E+01    0.177E+00
DAV:   2    -0.532015301371E+02   -0.17376E+00   -0.20472E+00   220   0.613E+00    0.237E+00
DAV:   3    -0.531284037186E+02    0.73126E-01   -0.93686E-01   240   0.443E+00    0.157E+00
DAV:   4    -0.531356993133E+02   -0.72956E-02   -0.37884E-01   220   0.218E+00    0.115E+00
DAV:   5    -0.531334891949E+02    0.22101E-02   -0.16920E-01   260   0.162E+00    0.715E-01
DAV:   6    -0.531419406060E+02   -0.84514E-02   -0.78731E-02   240   0.129E+00    0.601E-01
DAV:   7    -0.531404993079E+02    0.14413E-02   -0.36279E-02   220   0.929E-01    0.303E-01
DAV:   8    -0.531403487685E+02    0.15054E-03   -0.11624E-02   220   0.481E-01    0.223E-01
DAV:   9    -0.531400168097E+02    0.33196E-03   -0.29540E-03   220   0.270E-01    0.753E-02
DAV:  10    -0.531400294346E+02   -0.12625E-04   -0.47445E-04   260   0.137E-01    0.305E-02
DAV:  11    -0.531400519639E+02   -0.22529E-04   -0.11045E-04   200   0.611E-02    0.200E-02
DAV:  12    -0.531400838043E+02   -0.31840E-04   -0.37993E-05   140   0.351E-02    0.749E-03
DAV:  13    -0.531401112354E+02   -0.27431E-04   -0.14916E-05   100   0.199E-02    0.748E-03
DAV:  14    -0.531401341386E+02   -0.22903E-04   -0.76231E-06   120   0.149E-02    0.396E-03
DAV:  15    -0.531401494466E+02   -0.15308E-04   -0.34003E-06   140   0.861E-03    0.265E-03
DAV:  16    -0.531401723669E+02   -0.22920E-04   -0.31530E-06   100   0.696E-03    0.165E-03
DAV:  17    -0.531401895370E+02   -0.17170E-04   -0.23349E-06   120   0.526E-03    0.134E-03
DAV:  18    -0.531402090624E+02   -0.19525E-04   -0.28824E-06   100   0.519E-03    0.997E-04
DAV:  19    -0.531402185496E+02   -0.94873E-05   -0.19689E-06   120   0.413E-03
   15 T=  1552. E= -.52510736E+02 F= -.53140219E+02 E0= -.53066732E+02  EK= 0.24069E+01 SP= -.30E+01 SK= 0.12E+01
Information: wavefunction orthogonal band   80  0.7920
 bond charge predicted
 prediction of wavefunctions
       N       E                     dE             d eps       ncg     rms          rms(c)
DAV:   1    -0.525591335962E+02    0.58108E+00   -0.70592E+01   160   0.331E+01    0.195E+00
DAV:   2    -0.527623535779E+02   -0.20322E+00   -0.22829E+00   220   0.690E+00    0.250E+00
DAV:   3    -0.526812146903E+02    0.81139E-01   -0.93349E-01   240   0.484E+00    0.177E+00
DAV:   4    -0.526842395349E+02   -0.30248E-02   -0.43593E-01   240   0.240E+00    0.132E+00
DAV:   5    -0.526827222271E+02    0.15173E-02   -0.23522E-01   240   0.206E+00    0.861E-01
DAV:   6    -0.526917162930E+02   -0.89941E-02   -0.12863E-01   220   0.150E+00    0.633E-01
DAV:   7    -0.526897517334E+02    0.19646E-02   -0.38007E-02   220   0.105E+00    0.326E-01
DAV:   8    -0.526893626519E+02    0.38908E-03   -0.11162E-02   220   0.578E-01    0.200E-01
DAV:   9    -0.526892703977E+02    0.92254E-04   -0.44432E-03   220   0.333E-01    0.132E-01
DAV:  10    -0.526890547747E+02    0.21562E-03   -0.18620E-03   200   0.211E-01    0.578E-02
DAV:  11    -0.526890733648E+02   -0.18590E-04   -0.32084E-04   200   0.873E-02    0.353E-02
DAV:  12    -0.526890881028E+02   -0.14738E-04   -0.92664E-05   140   0.553E-02    0.145E-02
DAV:  13    -0.526891054188E+02   -0.17316E-04   -0.17371E-05   140   0.261E-02    0.814E-03
DAV:  14    -0.526891346159E+02   -0.29197E-04   -0.90916E-06   100   0.147E-02    0.491E-03
DAV:  15    -0.526891485780E+02   -0.13962E-04   -0.46894E-06   120   0.118E-02    0.283E-03
DAV:  16    -0.526891624395E+02   -0.13861E-04   -0.25302E-06   100   0.701E-03    0.183E-03
DAV:  17    -0.526891732838E+02   -0.10844E-04   -0.15020E-06   120   0.491E-03    0.113E-03
DAV:  18    -0.526891882045E+02   -0.14921E-04   -0.20419E-06   100   0.424E-03    0.827E-04
DAV:  19    -0.526891953404E+02   -0.71359E-05   -0.13015E-06   120   0.332E-03
   16 T=  1525. E= -.52442868E+02 F= -.52689195E+02 E0= -.52625485E+02  EK= 0.23650E+01 SP= -.35E+01 SK= 0.13E+01
 bond charge predicted
 prediction of wavefunctions
       N       E                     dE             d eps       ncg     rms          rms(c)
DAV:   1    -0.526224321822E+02    0.66756E-01   -0.10730E+02   160   0.411E+01    0.233E+00
DAV:   2    -0.528549295202E+02   -0.23250E+00   -0.28299E+00   220   0.639E+00    0.259E+00
DAV:   3    -0.528460092655E+02    0.89203E-02   -0.15951E+00   220   0.512E+00    0.306E+00
DAV:   4    -0.527977655029E+02    0.48244E-01   -0.10969E+00   220   0.327E+00    0.145E+00
DAV:   5    -0.527999088928E+02   -0.21434E-02   -0.19709E-01   220   0.248E+00    0.802E-01
DAV:   6    -0.528119967645E+02   -0.12088E-01   -0.97627E-02   220   0.157E+00    0.648E-01
DAV:   7    -0.528076137667E+02    0.43830E-02   -0.51309E-02   200   0.108E+00    0.280E-01
DAV:   8    -0.528084014079E+02   -0.78764E-03   -0.14488E-02   220   0.574E-01    0.207E-01
DAV:   9    -0.528079330160E+02    0.46839E-03   -0.40702E-03   260   0.343E-01    0.997E-02
DAV:  10    -0.528078779264E+02    0.55090E-04   -0.12703E-03   220   0.192E-01    0.445E-02
DAV:  11    -0.528079222327E+02   -0.44306E-04   -0.40739E-04   200   0.841E-02    0.360E-02
DAV:  12    -0.528079337231E+02   -0.11490E-04   -0.16500E-04   160   0.546E-02    0.157E-02
DAV:  13    -0.528079580664E+02   -0.24343E-04   -0.39071E-05   100   0.320E-02    0.110E-02
DAV:  14    -0.528079977374E+02   -0.39671E-04   -0.15746E-05   100   0.203E-02    0.519E-03
DAV:  15    -0.528080152944E+02   -0.17557E-04   -0.52614E-06   120   0.124E-02    0.295E-03
DAV:  16    -0.528080410101E+02   -0.25716E-04   -0.34160E-06   100   0.783E-03    0.189E-03
DAV:  17    -0.528080588616E+02   -0.17852E-04   -0.22153E-06   120   0.549E-03    0.141E-03
DAV:  18    -0.528080853486E+02   -0.26487E-04   -0.31224E-06   100   0.536E-03    0.893E-04
DAV:  19    -0.528081003022E+02   -0.14954E-04   -0.24196E-06   120   0.411E-03    0.820E-04
DAV:  20    -0.528081124625E+02   -0.12160E-04   -0.21074E-06   100   0.435E-03    0.645E-04
DAV:  21    -0.528081180776E+02   -0.56151E-05   -0.15430E-06   120   0.332E-03
   17 T=  1821. E= -.52486894E+02 F= -.52808118E+02 E0= -.52743636E+02  EK= 0.28241E+01 SP= -.39E+01 SK= 0.14E+01
 bond charge predicted
 prediction of wavefunctions
       N       E                     dE             d eps       ncg     rms          rms(c)
DAV:   1    -0.526532694427E+02    0.15484E+00   -0.78265E+01   160   0.361E+01    0.237E+00
DAV:   2    -0.530243522152E+02   -0.37108E+00   -0.40083E+00   240   0.822E+00    0.435E+00
DAV:   3    -0.527964266838E+02    0.22793E+00   -0.29289E+00   220   0.653E+00    0.262E+00
DAV:   4    -0.527951364918E+02    0.12902E-02   -0.12397E+00   240   0.346E+00    0.171E+00
DAV:   5    -0.527852291196E+02    0.99074E-02   -0.24142E-01   220   0.218E+00    0.534E-01
DAV:   6    -0.528002439658E+02   -0.15015E-01   -0.60646E-02   220   0.133E+00    0.576E-01
DAV:   7    -0.527974448931E+02    0.27991E-02   -0.33709E-02   200   0.106E+00    0.280E-01
DAV:   8    -0.527984350618E+02   -0.99017E-03   -0.17075E-02   220   0.572E-01    0.253E-01
DAV:   9    -0.527979908756E+02    0.44419E-03   -0.99374E-03   220   0.384E-01    0.143E-01
DAV:  10    -0.527978803904E+02    0.11049E-03   -0.25008E-03   220   0.219E-01    0.607E-02
DAV:  11    -0.527979038354E+02   -0.23445E-04   -0.59660E-04   200   0.109E-01    0.361E-02
DAV:  12    -0.527979347145E+02   -0.30879E-04   -0.13949E-04   140   0.541E-02    0.153E-02
DAV:  13    -0.527979594062E+02   -0.24692E-04   -0.32472E-05   140   0.323E-02    0.989E-03
DAV:  14    -0.527980027939E+02   -0.43388E-04   -0.13030E-05   100   0.179E-02    0.503E-03
DAV:  15    -0.527980227065E+02   -0.19913E-04   -0.46413E-06   120   0.116E-02    0.300E-03
DAV:  16    -0.527980508505E+02   -0.28144E-04   -0.39341E-06   100   0.806E-03    0.175E-03
DAV:  17    -0.527980711337E+02   -0.20283E-04   -0.28163E-06   120   0.576E-03    0.142E-03
DAV:  18    -0.527980984046E+02   -0.27271E-04   -0.37898E-06   100   0.582E-03    0.119E-03
DAV:  19    -0.527981108148E+02   -0.12410E-04   -0.23404E-06   140   0.454E-03    0.916E-04
DAV:  20    -0.527981229747E+02   -0.12160E-04   -0.25138E-06   100   0.462E-03    0.528E-04
DAV:  21    -0.527981276920E+02   -0.47174E-05   -0.15735E-06   120   0.300E-03
   18 T=  2081. E= -.52528018E+02 F= -.52798128E+02 E0= -.52730444E+02  EK= 0.32282E+01 SP= -.44E+01 SK= 0.14E+01
 bond charge predicted
 prediction of wavefunctions
       N       E                     dE             d eps       ncg     rms          rms(c)
DAV:   1    -0.518397620076E+02    0.95836E+00   -0.10598E+02   160   0.389E+01    0.295E+00
DAV:   2    -0.523681751317E+02   -0.52841E+00   -0.71324E+00   220   0.102E+01    0.440E+00
DAV:   3    -0.520247878032E+02    0.34339E+00   -0.23488E+00   220   0.772E+00    0.252E+00
DAV:   4    -0.520619170280E+02   -0.37129E-01   -0.14451E+00   240   0.385E+00    0.263E+00
DAV:   5    -0.520112372240E+02    0.50680E-01   -0.62823E-01   220   0.276E+00    0.141E+00
DAV:   6    -0.520367627875E+02   -0.25526E-01   -0.43455E-01   240   0.218E+00    0.141E+00
DAV:   7    -0.520340328324E+02    0.27300E-02   -0.27268E-01   220   0.188E+00    0.832E-01
DAV:   8    -0.520317575915E+02    0.22752E-02   -0.62118E-02   220   0.114E+00    0.355E-01
DAV:   9    -0.520320557923E+02   -0.29820E-03   -0.13602E-02   220   0.541E-01    0.166E-01
DAV:  10    -0.520323453541E+02   -0.28956E-03   -0.47773E-03   220   0.313E-01    0.144E-01
DAV:  11    -0.520321462548E+02    0.19910E-03   -0.19881E-03   220   0.219E-01    0.620E-02
DAV:  12    -0.520321858113E+02   -0.39556E-04   -0.32008E-04   240   0.820E-02    0.316E-02
DAV:  13    -0.520322361211E+02   -0.50310E-04   -0.96332E-05   140   0.495E-02    0.213E-02
DAV:  14    -0.520322678451E+02   -0.31724E-04   -0.48147E-05   120   0.351E-02    0.149E-02
DAV:  15    -0.520322891377E+02   -0.21293E-04   -0.14742E-05   140   0.208E-02    0.674E-03
DAV:  16    -0.520323193369E+02   -0.30199E-04   -0.62720E-06   100   0.121E-02    0.379E-03
DAV:  17    -0.520323390449E+02   -0.19708E-04   -0.35772E-06   120   0.878E-03    0.214E-03
DAV:  18    -0.520323614476E+02   -0.22403E-04   -0.31558E-06   100   0.635E-03    0.157E-03
DAV:  19    -0.520323770675E+02   -0.15620E-04   -0.22617E-06   140   0.507E-03    0.110E-03
DAV:  20    -0.520323971550E+02   -0.20088E-04   -0.31226E-06   100   0.492E-03    0.686E-04
DAV:  21    -0.520324059429E+02   -0.87879E-05   -0.17903E-06   120   0.342E-03
   19 T=  1992. E= -.52376408E+02 F= -.52032406E+02 E0= -.51947560E+02  EK= 0.30893E+01 SP= -.49E+01 SK= 0.14E+01
 bond charge predicted
 prediction of wavefunctions
       N       E                     dE             d eps       ncg     rms          rms(c)
DAV:   1    -0.516556441367E+02    0.37675E+00   -0.14439E+02   160   0.463E+01    0.357E+00
DAV:   2    -0.525060260734E+02   -0.85038E+00   -0.86904E+00   240   0.119E+01    0.657E+00
DAV:   3    -0.518605570707E+02    0.64547E+00   -0.53031E+00   240   0.968E+00    0.348E+00
DAV:   4    -0.518810195543E+02   -0.20462E-01   -0.18349E+00   240   0.466E+00    0.268E+00
DAV:   5    -0.518610385547E+02    0.19981E-01   -0.10603E+00   220   0.381E+00    0.179E+00
DAV:   6    -0.518713020333E+02   -0.10263E-01   -0.60727E-01   240   0.262E+00    0.190E+00
DAV:   7    -0.518571241264E+02    0.14178E-01   -0.53707E-01   220   0.189E+00    0.121E+00
DAV:   8    -0.518549804527E+02    0.21437E-02   -0.11362E-01   220   0.132E+00    0.500E-01
DAV:   9    -0.518580080381E+02   -0.30276E-02   -0.38010E-02   220   0.778E-01    0.432E-01
DAV:  10    -0.518569227637E+02    0.10853E-02   -0.20864E-02   220   0.569E-01    0.203E-01
DAV:  11    -0.518568438193E+02    0.78944E-04   -0.43916E-03   220   0.318E-01    0.890E-02
DAV:  12    -0.518569034012E+02   -0.59582E-04   -0.73577E-04   260   0.129E-01    0.544E-02
DAV:  13    -0.518569598548E+02   -0.56454E-04   -0.20528E-04   220   0.747E-02    0.309E-02
DAV:  14    -0.518570427449E+02   -0.82890E-04   -0.43035E-05   100   0.347E-02    0.148E-02
DAV:  15    -0.518571019454E+02   -0.59201E-04   -0.17435E-05   120   0.279E-02    0.833E-03
DAV:  16    -0.518571611289E+02   -0.59183E-04   -0.10940E-05   120   0.132E-02    0.561E-03
DAV:  17    -0.518571993454E+02   -0.38217E-04   -0.60108E-06   120   0.113E-02    0.420E-03
DAV:  18    -0.518572517752E+02   -0.52430E-04   -0.62981E-06   120   0.888E-03    0.271E-03
DAV:  19    -0.518572959677E+02   -0.44192E-04   -0.56830E-06   120   0.779E-03    0.144E-03
DAV:  20    -0.518573387164E+02   -0.42749E-04   -0.60778E-06   120   0.686E-03    0.137E-03
DAV:  21    -0.518573593725E+02   -0.20656E-04   -0.38074E-06   140   0.554E-03    0.134E-03
DAV:  22    -0.518573777085E+02   -0.18336E-04   -0.43419E-06   100   0.593E-03    0.914E-04
DAV:  23    -0.518573835710E+02   -0.58625E-05   -0.22202E-06   140   0.418E-03
   20 T=  2152. E= -.52434628E+02 F= -.51857384E+02 E0= -.51769233E+02  EK= 0.33375E+01 SP= -.53E+01 SK= 0.14E+01
 bond charge predicted
 prediction of wavefunctions
       N       E                     dE             d eps       ncg     rms          rms(c)
DAV:   1    -0.517413054928E+02    0.11607E+00   -0.15784E+02   160   0.470E+01    0.342E+00
DAV:   2    -0.528200342885E+02   -0.10787E+01   -0.96033E+00   220   0.126E+01    0.816E+00
DAV:   3    -0.519217551964E+02    0.89828E+00   -0.71165E+00   220   0.103E+01    0.325E+00
DAV:   4    -0.519700779116E+02   -0.48323E-01   -0.16268E+00   240   0.456E+00    0.241E+00
DAV:   5    -0.519409076404E+02    0.29170E-01   -0.68953E-01   220   0.320E+00    0.150E+00
DAV:   6    -0.519632352448E+02   -0.22328E-01   -0.42792E-01   200   0.244E+00    0.139E+00
DAV:   7    -0.519742937560E+02   -0.11059E-01   -0.36702E-01   200   0.195E+00    0.144E+00
DAV:   8    -0.519622169837E+02    0.12077E-01   -0.21540E-01   220   0.158E+00    0.830E-01
DAV:   9    -0.519606803666E+02    0.15366E-02   -0.56467E-02   220   0.884E-01    0.312E-01
DAV:  10    -0.519609735379E+02   -0.29317E-03   -0.12209E-02   200   0.462E-01    0.195E-01
DAV:  11    -0.519606545463E+02    0.31899E-03   -0.39061E-03   220   0.294E-01    0.994E-02
DAV:  12    -0.519606621906E+02   -0.76443E-05   -0.11419E-03   200   0.159E-01    0.646E-02
DAV:  13    -0.519606821334E+02   -0.19943E-04   -0.27719E-04   220   0.799E-02    0.263E-02
DAV:  14    -0.519607332524E+02   -0.51119E-04   -0.66068E-05   120   0.478E-02    0.244E-02
DAV:  15    -0.519607794902E+02   -0.46238E-04   -0.44096E-05   100   0.390E-02    0.117E-02
DAV:  16    -0.519608173906E+02   -0.37900E-04   -0.13348E-05   120   0.205E-02    0.627E-03
DAV:  17    -0.519608614870E+02   -0.44096E-04   -0.90953E-06   100   0.147E-02    0.383E-03
DAV:  18    -0.519608789725E+02   -0.17486E-04   -0.38991E-06   140   0.896E-03    0.257E-03
DAV:  19    -0.519609222702E+02   -0.43298E-04   -0.57992E-06   100   0.732E-03    0.142E-03
DAV:  20    -0.519609477337E+02   -0.25464E-04   -0.38010E-06   120   0.501E-03    0.117E-03
DAV:  21    -0.519609654088E+02   -0.17675E-04   -0.23678E-06   120   0.506E-03    0.867E-04
DAV:  22    -0.519609834627E+02   -0.18054E-04   -0.38705E-06   100   0.488E-03    0.648E-04
DAV:  23    -0.519609894266E+02   -0.59640E-05   -0.17877E-06   120   0.358E-03
   21 T=  2616. E= -.52362067E+02 F= -.51960989E+02 E0= -.51879540E+02  EK= 0.40582E+01 SP= -.58E+01 SK= 0.13E+01
 bond charge predicted
 prediction of wavefunctions
       N       E                     dE             d eps       ncg     rms          rms(c)
DAV:   1    -0.523270736124E+02   -0.36609E+00   -0.17149E+02   160   0.547E+01    0.329E+00
DAV:   2    -0.525862188902E+02   -0.25915E+00   -0.37600E+00   200   0.773E+00    0.275E+00
DAV:   3    -0.526123468579E+02   -0.26128E-01   -0.14939E+00   220   0.652E+00    0.354E+00
DAV:   4    -0.526025714340E+02    0.97754E-02   -0.20651E+00   240   0.491E+00    0.249E+00
DAV:   5    -0.525671704986E+02    0.35401E-01   -0.60650E-01   220   0.350E+00    0.138E+00
DAV:   6    -0.525918271073E+02   -0.24657E-01   -0.39586E-01   200   0.228E+00    0.146E+00
DAV:   7    -0.525726099738E+02    0.19217E-01   -0.17859E-01   200   0.167E+00    0.680E-01
DAV:   8    -0.525743655052E+02   -0.17555E-02   -0.52957E-02   220   0.929E-01    0.412E-01
DAV:   9    -0.525754920844E+02   -0.11266E-02   -0.28089E-02   220   0.608E-01    0.457E-01
DAV:  10    -0.525740738136E+02    0.14183E-02   -0.20482E-02   240   0.547E-01    0.217E-01
DAV:  11    -0.525737275392E+02    0.34627E-03   -0.50821E-03   240   0.310E-01    0.763E-02
DAV:  12    -0.525737765935E+02   -0.49054E-04   -0.85934E-04   260   0.150E-01    0.583E-02
DAV:  13    -0.525737608269E+02    0.15767E-04   -0.29685E-04   220   0.926E-02    0.170E-02
DAV:  14    -0.525738122499E+02   -0.51423E-04   -0.52173E-05   140   0.406E-02    0.174E-02
DAV:  15    -0.525738482351E+02   -0.35985E-04   -0.26493E-05   140   0.348E-02    0.680E-03
DAV:  16    -0.525738670509E+02   -0.18816E-04   -0.78549E-06   140   0.138E-02    0.484E-03
DAV:  17    -0.525738915862E+02   -0.24535E-04   -0.43112E-06   140   0.978E-03    0.231E-03
DAV:  18    -0.525739252443E+02   -0.33658E-04   -0.49376E-06   120   0.684E-03    0.150E-03
DAV:  19    -0.525739446066E+02   -0.19362E-04   -0.30569E-06   140   0.547E-03    0.116E-03
DAV:  20    -0.525739632073E+02   -0.18601E-04   -0.27759E-06   100   0.513E-03    0.926E-04
DAV:  21    -0.525739764724E+02   -0.13265E-04   -0.29826E-06   120   0.452E-03    0.101E-03
DAV:  22    -0.525739846748E+02   -0.82023E-05   -0.24057E-06   140   0.442E-03
   22 T=  3357. E= -.52470467E+02 F= -.52573985E+02 E0= -.52501437E+02  EK= 0.52076E+01 SP= -.62E+01 SK= 0.11E+01
 bond charge predicted
 prediction of wavefunctions
       N       E                     dE             d eps       ncg     rms          rms(c)
DAV:   1    -0.515818256733E+02    0.99215E+00   -0.18219E+02   160   0.571E+01    0.391E+00
DAV:   2    -0.525202865686E+02   -0.93846E+00   -0.99055E+00   220   0.121E+01    0.671E+00
DAV:   3    -0.518425497432E+02    0.67774E+00   -0.37068E+00   220   0.986E+00    0.306E+00
DAV:   4    -0.519050144868E+02   -0.62465E-01   -0.12797E+00   220   0.477E+00    0.235E+00
DAV:   5    -0.519053570242E+02   -0.34254E-03   -0.86933E-01   220   0.376E+00    0.160E+00
DAV:   6    -0.519194984277E+02   -0.14141E-01   -0.48924E-01   240   0.289E+00    0.132E+00
DAV:   7    -0.519119355507E+02    0.75629E-02   -0.20187E-01   220   0.204E+00    0.740E-01
DAV:   8    -0.519129844842E+02   -0.10489E-02   -0.84446E-02   220   0.126E+00    0.627E-01
DAV:   9    -0.519108262444E+02    0.21582E-02   -0.42892E-02   220   0.752E-01    0.366E-01
DAV:  10    -0.519099887251E+02    0.83752E-03   -0.12645E-02   220   0.524E-01    0.135E-01
DAV:  11    -0.519100860224E+02   -0.97297E-04   -0.22235E-03   240   0.247E-01    0.768E-02
DAV:  12    -0.519101449557E+02   -0.58933E-04   -0.57446E-04   220   0.125E-01    0.509E-02
DAV:  13    -0.519101812760E+02   -0.36320E-04   -0.31632E-04   240   0.895E-02    0.321E-02
DAV:  14    -0.519102264891E+02   -0.45213E-04   -0.10857E-04   160   0.516E-02    0.193E-02
DAV:  15    -0.519102594741E+02   -0.32985E-04   -0.33613E-05   140   0.341E-02    0.939E-03
DAV:  16    -0.519102977658E+02   -0.38292E-04   -0.12553E-05   140   0.184E-02    0.611E-03
DAV:  17    -0.519103382190E+02   -0.40453E-04   -0.92760E-06   140   0.144E-02    0.267E-03
DAV:  18    -0.519103651318E+02   -0.26913E-04   -0.53901E-06   140   0.817E-03    0.243E-03
DAV:  19    -0.519103875818E+02   -0.22450E-04   -0.42508E-06   140   0.780E-03    0.206E-03
DAV:  20    -0.519104114986E+02   -0.23917E-04   -0.55072E-06   140   0.735E-03    0.162E-03
DAV:  21    -0.519104243061E+02   -0.12808E-04   -0.39153E-06   140   0.613E-03    0.891E-04
DAV:  22    -0.519104307883E+02   -0.64822E-05   -0.26331E-06   140   0.480E-03
   23 T=  3302. E= -.52536135E+02 F= -.51910431E+02 E0= -.51843384E+02  EK= 0.51218E+01 SP= -.66E+01 SK= 0.85E+00
 bond charge predicted
 prediction of wavefunctions
       N       E                     dE             d eps       ncg     rms          rms(c)
DAV:   1    -0.493427983797E+02    0.25676E+01   -0.18095E+02   160   0.526E+01    0.332E+00
DAV:   2    -0.498628047959E+02   -0.52001E+00   -0.57392E+00   220   0.106E+01    0.410E+00
DAV:   3    -0.497193719573E+02    0.14343E+00   -0.33346E+00   240   0.760E+00    0.307E+00
DAV:   4    -0.497880866026E+02   -0.68715E-01   -0.23615E+00   240   0.437E+00    0.332E+00
DAV:   5    -0.496948266503E+02    0.93260E-01   -0.69804E-01   280   0.386E+00    0.197E+00
DAV:   6    -0.497386784464E+02   -0.43852E-01   -0.52139E-01   240   0.298E+00    0.190E+00
DAV:   7    -0.497220899464E+02    0.16589E-01   -0.30706E-01   240   0.224E+00    0.969E-01
DAV:   8    -0.497181208195E+02    0.39691E-02   -0.10209E-01   260   0.139E+00    0.489E-01
DAV:   9    -0.497177732318E+02    0.34759E-03   -0.23097E-02   240   0.693E-01    0.256E-01
DAV:  10    -0.497182422780E+02   -0.46905E-03   -0.84770E-03   260   0.439E-01    0.163E-01
DAV:  11    -0.497181375642E+02    0.10471E-03   -0.21671E-03   240   0.234E-01    0.826E-02
DAV:  12    -0.497182579081E+02   -0.12034E-03   -0.59011E-04   260   0.125E-01    0.492E-02
DAV:  13    -0.497183482589E+02   -0.90351E-04   -0.19324E-04   240   0.835E-02    0.291E-02
DAV:  14    -0.497184239017E+02   -0.75643E-04   -0.69634E-05   160   0.479E-02    0.164E-02
DAV:  15    -0.497184910299E+02   -0.67128E-04   -0.31824E-05   120   0.331E-02    0.925E-03
DAV:  16    -0.497185321903E+02   -0.41160E-04   -0.13503E-05   140   0.194E-02    0.560E-03
DAV:  17    -0.497185860540E+02   -0.53864E-04   -0.90970E-06   120   0.126E-02    0.281E-03
DAV:  18    -0.497186257867E+02   -0.39733E-04   -0.60709E-06   140   0.869E-03    0.275E-03
DAV:  19    -0.497186636306E+02   -0.37844E-04   -0.53425E-06   140   0.851E-03    0.173E-03
DAV:  20    -0.497186995514E+02   -0.35921E-04   -0.84065E-06   160   0.741E-03    0.152E-03
DAV:  21    -0.497187241128E+02   -0.24561E-04   -0.32348E-06   140   0.539E-03    0.111E-03
DAV:  22    -0.497187351366E+02   -0.11024E-04   -0.28850E-06   140   0.403E-03    0.672E-04
DAV:  23    -0.497187386579E+02   -0.35214E-05   -0.10143E-06   140   0.316E-03
   24 T=  2572. E= -.51975380E+02 F= -.49718739E+02 E0= -.49649539E+02  EK= 0.39901E+01 SP= -.69E+01 SK= 0.69E+00
Information: wavefunction orthogonal band   80  0.6305
 bond charge predicted
 prediction of wavefunctions
       N       E                     dE             d eps       ncg     rms          rms(c)
DAV:   1    -0.494178645664E+02    0.30087E+00   -0.13248E+03   160   0.146E+02    0.793E+00
DAV:   2    -0.529947182891E+02   -0.35769E+01   -0.41165E+01   220   0.242E+01    0.110E+01
DAV:   3    -0.517641881607E+02    0.12305E+01   -0.18394E+01   240   0.190E+01    0.676E+00
DAV:   4    -0.516354160723E+02    0.12877E+00   -0.64728E+00   240   0.107E+01    0.567E+00
DAV:   5    -0.515266803339E+02    0.10874E+00   -0.41519E+00   240   0.844E+00    0.404E+00
DAV:   6    -0.515379654460E+02   -0.11285E-01   -0.21752E+00   240   0.663E+00    0.288E+00
DAV:   7    -0.514987177470E+02    0.39248E-01   -0.91628E-01   240   0.470E+00    0.177E+00
DAV:   8    -0.514953719138E+02    0.33458E-02   -0.57140E-01   260   0.296E+00    0.145E+00
DAV:   9    -0.514888134600E+02    0.65585E-02   -0.26486E-01   240   0.194E+00    0.979E-01
DAV:  10    -0.514817253905E+02    0.70881E-02   -0.10329E-01   200   0.131E+00    0.442E-01
DAV:  11    -0.514815750814E+02    0.15031E-03   -0.20566E-02   220   0.623E-01    0.203E-01
DAV:  12    -0.514821836133E+02   -0.60853E-03   -0.28395E-03   200   0.286E-01    0.782E-02
DAV:  13    -0.514825716088E+02   -0.38800E-03   -0.10391E-03   260   0.189E-01    0.821E-02
DAV:  14    -0.514827877953E+02   -0.21619E-03   -0.62392E-04   240   0.139E-01    0.340E-02
DAV:  15    -0.514829858106E+02   -0.19802E-03   -0.14738E-04   200   0.716E-02    0.203E-02
DAV:  16    -0.514831887559E+02   -0.20295E-03   -0.52883E-05   120   0.392E-02    0.143E-02
DAV:  17    -0.514833543128E+02   -0.16556E-03   -0.26458E-05   160   0.300E-02    0.642E-03
DAV:  18    -0.514836178230E+02   -0.26351E-03   -0.22165E-05   140   0.163E-02    0.489E-03
DAV:  19    -0.514837825069E+02   -0.16468E-03   -0.77634E-06   120   0.125E-02    0.337E-03
DAV:  20    -0.514840186587E+02   -0.23615E-03   -0.28853E-05   140   0.134E-02    0.210E-03
DAV:  21    -0.514841421590E+02   -0.12350E-03   -0.98510E-06   120   0.925E-03    0.189E-03
DAV:  22    -0.514841818781E+02   -0.39719E-04   -0.55276E-06   140   0.698E-03    0.129E-03
DAV:  23    -0.514842112398E+02   -0.29362E-04   -0.31628E-06   100   0.579E-03    0.754E-04
DAV:  24    -0.514842226055E+02   -0.11366E-04   -0.16666E-06   140   0.346E-03    0.469E-04
DAV:  25    -0.514842290184E+02   -0.64129E-05   -0.77397E-07   100   0.279E-03
   25 T=  3704. E= -.52467253E+02 F= -.51484229E+02 E0= -.51420194E+02  EK= 0.57451E+01 SP= -.72E+01 SK= 0.52E+00
 bond charge predicted
 prediction of wavefunctions
       N       E                     dE             d eps       ncg     rms          rms(c)
DAV:   1    -0.516587960186E+02   -0.17457E+00   -0.40594E+02   160   0.776E+01    0.570E+00
DAV:   2    -0.541323321163E+02   -0.24735E+01   -0.28342E+01   240   0.201E+01    0.116E+01
DAV:   3    -0.521892585917E+02    0.19431E+01   -0.14835E+01   220   0.155E+01    0.425E+00
DAV:   4    -0.523068083771E+02   -0.11755E+00   -0.34385E+00   240   0.778E+00    0.401E+00
DAV:   5    -0.523309644633E+02   -0.24156E-01   -0.27947E+00   240   0.596E+00    0.339E+00
DAV:   6    -0.522854636143E+02    0.45501E-01   -0.18272E+00   240   0.463E+00    0.215E+00
DAV:   7    -0.523134872967E+02   -0.28024E-01   -0.10987E+00   260   0.329E+00    0.188E+00
DAV:   8    -0.522906819806E+02    0.22805E-01   -0.56116E-01   260   0.266E+00    0.135E+00
DAV:   9    -0.522803647068E+02    0.10317E-01   -0.21297E-01   240   0.169E+00    0.664E-01
DAV:  10    -0.522792149364E+02    0.11498E-02   -0.43446E-02   220   0.852E-01    0.386E-01
DAV:  11    -0.522790386232E+02    0.17631E-03   -0.13845E-02   220   0.559E-01    0.202E-01
DAV:  12    -0.522792653369E+02   -0.22671E-03   -0.47741E-03   200   0.325E-01    0.143E-01
DAV:  13    -0.522792868432E+02   -0.21506E-04   -0.14675E-03   220   0.184E-01    0.451E-02
DAV:  14    -0.522794577376E+02   -0.17089E-03   -0.31157E-04   240   0.976E-02    0.409E-02
DAV:  15    -0.522795335585E+02   -0.75821E-04   -0.15530E-04   140   0.659E-02    0.213E-02
DAV:  16    -0.522796172610E+02   -0.83703E-04   -0.48749E-05   120   0.394E-02    0.125E-02
DAV:  17    -0.522797089452E+02   -0.91684E-04   -0.18732E-05   100   0.232E-02    0.463E-03
DAV:  18    -0.522797846054E+02   -0.75660E-04   -0.12445E-05   120   0.119E-02    0.333E-03
DAV:  19    -0.522798364540E+02   -0.51849E-04   -0.70225E-06   100   0.110E-02    0.245E-03
DAV:  20    -0.522799099015E+02   -0.73447E-04   -0.16875E-05   140   0.105E-02    0.182E-03
DAV:  21    -0.522799513884E+02   -0.41487E-04   -0.78581E-06   100   0.695E-03    0.106E-03
DAV:  22    -0.522799634250E+02   -0.12037E-04   -0.38141E-06   140   0.490E-03    0.109E-03
DAV:  23    -0.522799688183E+02   -0.53933E-05   -0.18154E-06   100   0.463E-03
   26 T=  4507. E= -.52517547E+02 F= -.52279969E+02 E0= -.52210922E+02  EK= 0.69915E+01 SP= -.75E+01 SK= 0.26E+00
 bond charge predicted
 prediction of wavefunctions
       N       E                     dE             d eps       ncg     rms          rms(c)
DAV:   1    -0.497402217932E+02    0.25397E+01   -0.39426E+02   160   0.759E+01    0.568E+00
DAV:   2    -0.525609133446E+02   -0.28207E+01   -0.22747E+01   240   0.185E+01    0.162E+01
DAV:   3    -0.503348717800E+02    0.22260E+01   -0.29668E+01   220   0.119E+01    0.444E+00
DAV:   4    -0.506156412707E+02   -0.28077E+00   -0.46489E+00   240   0.891E+00    0.545E+00
DAV:   5    -0.504368056215E+02    0.17884E+00   -0.37882E+00   260   0.612E+00    0.279E+00
DAV:   6    -0.505732203681E+02   -0.13641E+00   -0.19855E+00   240   0.491E+00    0.399E+00
DAV:   7    -0.505187749706E+02    0.54445E-01   -0.23098E+00   240   0.423E+00    0.295E+00
DAV:   8    -0.504877849701E+02    0.30990E-01   -0.82208E-01   240   0.289E+00    0.172E+00
DAV:   9    -0.504754099286E+02    0.12375E-01   -0.29074E-01   220   0.196E+00    0.826E-01
DAV:  10    -0.504772898822E+02   -0.18800E-02   -0.78235E-02   220   0.102E+00    0.544E-01
DAV:  11    -0.504760877762E+02    0.12021E-02   -0.29584E-02   220   0.701E-01    0.290E-01
DAV:  12    -0.504763749421E+02   -0.28717E-03   -0.79502E-03   220   0.389E-01    0.197E-01
DAV:  13    -0.504763066133E+02    0.68329E-04   -0.31908E-03   220   0.258E-01    0.126E-01
DAV:  14    -0.504764264439E+02   -0.11983E-03   -0.12319E-03   240   0.167E-01    0.845E-02
DAV:  15    -0.504765314804E+02   -0.10504E-03   -0.40331E-04   220   0.980E-02    0.462E-02
DAV:  16    -0.504766242617E+02   -0.92781E-04   -0.15773E-04   220   0.754E-02    0.253E-02
DAV:  17    -0.504767192645E+02   -0.95003E-04   -0.55555E-05   120   0.347E-02    0.103E-02
DAV:  18    -0.504767600353E+02   -0.40771E-04   -0.11740E-05   140   0.221E-02    0.609E-03
DAV:  19    -0.504768128315E+02   -0.52796E-04   -0.10037E-05   100   0.109E-02    0.253E-03
DAV:  20    -0.504768420273E+02   -0.29196E-04   -0.54580E-06   140   0.685E-03    0.199E-03
DAV:  21    -0.504768663462E+02   -0.24319E-04   -0.35087E-06   100   0.692E-03    0.159E-03
DAV:  22    -0.504768872409E+02   -0.20895E-04   -0.45402E-06   120   0.615E-03    0.109E-03
DAV:  23    -0.504768964817E+02   -0.92407E-05   -0.24169E-06   140   0.475E-03
   27 T=  3783. E= -.52163250E+02 F= -.50476896E+02 E0= -.50383581E+02  EK= 0.58673E+01 SP= -.76E+01 SK= 0.92E-01
 bond charge predicted
 prediction of wavefunctions
       N       E                     dE             d eps       ncg     rms          rms(c)
DAV:   1    -0.486291257526E+02    0.18478E+01   -0.12976E+03   160   0.140E+02    0.100E+01
DAV:   2    -0.554558121336E+02   -0.68267E+01   -0.72557E+01   260   0.371E+01    0.146E+01
DAV:   3    -0.513842669505E+02    0.40715E+01   -0.28350E+01   220   0.267E+01    0.105E+01
DAV:   4    -0.504368280228E+02    0.94744E+00   -0.12707E+01   260   0.116E+01    0.578E+00
DAV:   5    -0.506462859355E+02   -0.20946E+00   -0.41879E+00   240   0.672E+00    0.501E+00
DAV:   6    -0.506911356856E+02   -0.44850E-01   -0.62702E+00   240   0.727E+00    0.420E+00
DAV:   7    -0.506537153006E+02    0.37420E-01   -0.10584E+00   240   0.514E+00    0.311E+00
DAV:   8    -0.506770623858E+02   -0.23347E-01   -0.18193E+00   240   0.481E+00    0.279E+00
DAV:   9    -0.505994482865E+02    0.77614E-01   -0.30604E-01   220   0.269E+00    0.921E-01
DAV:  10    -0.506081173739E+02   -0.86691E-02   -0.88011E-02   240   0.142E+00    0.729E-01
DAV:  11    -0.506039626541E+02    0.41547E-02   -0.33420E-02   220   0.620E-01    0.336E-01
DAV:  12    -0.506071845582E+02   -0.32219E-02   -0.16023E-02   200   0.565E-01    0.265E-01
DAV:  13    -0.506075359614E+02   -0.35140E-03   -0.37139E-03   220   0.338E-01    0.163E-01
DAV:  14    -0.506080673387E+02   -0.53138E-03   -0.23783E-03   200   0.218E-01    0.136E-01
DAV:  15    -0.506083456581E+02   -0.27832E-03   -0.15672E-03   220   0.168E-01    0.775E-02
DAV:  16    -0.506085558776E+02   -0.21022E-03   -0.28619E-04   200   0.745E-02    0.326E-02
DAV:  17    -0.506089568072E+02   -0.40093E-03   -0.79396E-05   160   0.426E-02    0.177E-02
DAV:  18    -0.506091767370E+02   -0.21993E-03   -0.38866E-05   120   0.283E-02    0.131E-02
DAV:  19    -0.506094165820E+02   -0.23984E-03   -0.29288E-05   140   0.226E-02    0.748E-03
DAV:  20    -0.506096389949E+02   -0.22241E-03   -0.15032E-05   120   0.174E-02    0.447E-03
DAV:  21    -0.506099593844E+02   -0.32039E-03   -0.37407E-05   160   0.157E-02    0.297E-03
DAV:  22    -0.506101136247E+02   -0.15424E-03   -0.97016E-06   120   0.986E-03    0.292E-03
DAV:  23    -0.506102335766E+02   -0.11995E-03   -0.13941E-05   140   0.951E-03    0.182E-03
DAV:  24    -0.506102828187E+02   -0.49242E-04   -0.37238E-06   120   0.612E-03    0.179E-03
DAV:  25    -0.506102979952E+02   -0.15176E-04   -0.12852E-06   140   0.378E-03    0.976E-04
DAV:  26    -0.506103110526E+02   -0.13057E-04   -0.85661E-07   100   0.325E-03    0.422E-04
DAV:  27    -0.506103163985E+02   -0.53459E-05   -0.41442E-07   100   0.198E-03
   28 T=  3849. E= -.52353014E+02 F= -.50610316E+02 E0= -.50500100E+02  EK= 0.59708E+01 SP= -.77E+01 SK= 0.16E-01
 bond charge predicted
 prediction of wavefunctions
       N       E                     dE             d eps       ncg     rms          rms(c)
DAV:   1    -0.507740522489E+02   -0.16374E+00   -0.41982E+02   160   0.839E+01    0.573E+00
DAV:   2    -0.522785051335E+02   -0.15045E+01   -0.17004E+01   220   0.176E+01    0.881E+00
DAV:   3    -0.516956639218E+02    0.58284E+00   -0.14110E+01   260   0.135E+01    0.820E+00
DAV:   4    -0.514158369058E+02    0.27983E+00   -0.11959E+01   260   0.808E+00    0.526E+00
DAV:   5    -0.514384877962E+02   -0.22651E-01   -0.34291E+00   240   0.673E+00    0.477E+00
DAV:   6    -0.514056678838E+02    0.32820E-01   -0.37713E+00   240   0.551E+00    0.370E+00
DAV:   7    -0.513313688621E+02    0.74299E-01   -0.13676E+00   240   0.429E+00    0.227E+00
DAV:   8    -0.513377418251E+02   -0.63730E-02   -0.82920E-01   240   0.281E+00    0.192E+00
DAV:   9    -0.513219578058E+02    0.15784E-01   -0.40012E-01   260   0.204E+00    0.929E-01
DAV:  10    -0.513253211080E+02   -0.33633E-02   -0.66127E-02   220   0.121E+00    0.515E-01
DAV:  11    -0.513250657630E+02    0.25535E-03   -0.28482E-02   220   0.887E-01    0.396E-01
DAV:  12    -0.513246473650E+02    0.41840E-03   -0.14599E-02   220   0.548E-01    0.209E-01
DAV:  13    -0.513248234793E+02   -0.17611E-03   -0.67365E-03   200   0.353E-01    0.173E-01
DAV:  14    -0.513246703345E+02    0.15314E-03   -0.28747E-03   220   0.215E-01    0.709E-02
DAV:  15    -0.513247560171E+02   -0.85683E-04   -0.43019E-04   220   0.918E-02    0.313E-02
DAV:  16    -0.513248432985E+02   -0.87281E-04   -0.71187E-05   160   0.516E-02    0.173E-02
DAV:  17    -0.513249004422E+02   -0.57144E-04   -0.20304E-05   100   0.341E-02    0.117E-02
DAV:  18    -0.513249559565E+02   -0.55514E-04   -0.12005E-05   140   0.178E-02    0.481E-03
DAV:  19    -0.513250178342E+02   -0.61878E-04   -0.85784E-06   100   0.916E-03    0.221E-03
DAV:  20    -0.513250622906E+02   -0.44456E-04   -0.52560E-06   120   0.697E-03    0.183E-03
DAV:  21    -0.513251122973E+02   -0.50007E-04   -0.68645E-06   100   0.780E-03    0.127E-03
DAV:  22    -0.513251390443E+02   -0.26747E-04   -0.55014E-06   120   0.584E-03    0.940E-04
DAV:  23    -0.513251537648E+02   -0.14720E-04   -0.34699E-06   140   0.533E-03    0.108E-03
DAV:  24    -0.513251599131E+02   -0.61484E-05   -0.25813E-06   100   0.392E-03
   29 T=  4320. E= -.52359444E+02 F= -.51325160E+02 E0= -.51202406E+02  EK= 0.67015E+01 SP= -.77E+01 SK= 0.64E-02
 bond charge predicted
 prediction of wavefunctions
       N       E                     dE             d eps       ncg     rms          rms(c)
DAV:   1    -0.508014496548E+02    0.52370E+00   -0.31927E+02   160   0.707E+01    0.563E+00
DAV:   2    -0.540101653721E+02   -0.32087E+01   -0.33008E+01   240   0.228E+01    0.127E+01
DAV:   3    -0.521021610107E+02    0.19080E+01   -0.24450E+01   220   0.164E+01    0.832E+00
DAV:   4    -0.511210873087E+02    0.98107E+00   -0.49797E+00   240   0.945E+00    0.339E+00
DAV:   5    -0.511962549448E+02   -0.75168E-01   -0.14885E+00   240   0.531E+00    0.309E+00
DAV:   6    -0.512356396221E+02   -0.39385E-01   -0.12580E+00   240   0.411E+00    0.305E+00
DAV:   7    -0.512244880741E+02    0.11152E-01   -0.12627E+00   240   0.346E+00    0.287E+00
DAV:   8    -0.512247430509E+02   -0.25498E-03   -0.10218E+00   240   0.298E+00    0.235E+00
DAV:   9    -0.512223828434E+02    0.23602E-02   -0.67057E-01   240   0.256E+00    0.141E+00
DAV:  10    -0.512085940126E+02    0.13789E-01   -0.10534E-01   220   0.139E+00    0.464E-01
DAV:  11    -0.512108290523E+02   -0.22350E-02   -0.23399E-02   220   0.698E-01    0.256E-01
DAV:  12    -0.512106653224E+02    0.16373E-03   -0.95850E-03   200   0.416E-01    0.202E-01
DAV:  13    -0.512105391843E+02    0.12614E-03   -0.44399E-03   200   0.267E-01    0.934E-02
DAV:  14    -0.512107234734E+02   -0.18429E-03   -0.81966E-04   200   0.135E-01    0.688E-02
DAV:  15    -0.512107666688E+02   -0.43195E-04   -0.38338E-04   200   0.113E-01    0.482E-02
DAV:  16    -0.512107830050E+02   -0.16336E-04   -0.14603E-04   140   0.654E-02    0.179E-02
DAV:  17    -0.512108200852E+02   -0.37080E-04   -0.32478E-05   100   0.341E-02    0.142E-02
DAV:  18    -0.512108634910E+02   -0.43406E-04   -0.18207E-05   120   0.239E-02    0.830E-03
DAV:  19    -0.512108904338E+02   -0.26943E-04   -0.73589E-06   100   0.135E-02    0.378E-03
DAV:  20    -0.512109173640E+02   -0.26930E-04   -0.43285E-06   120   0.772E-03    0.204E-03
DAV:  21    -0.512109400284E+02   -0.22664E-04   -0.33540E-06   100   0.608E-03    0.172E-03
DAV:  22    -0.512109664442E+02   -0.26416E-04   -0.44149E-06   120   0.604E-03    0.943E-04
DAV:  23    -0.512109832938E+02   -0.16850E-04   -0.37876E-06   100   0.493E-03    0.976E-04
DAV:  24    -0.512109897996E+02   -0.65059E-05   -0.18050E-06   120   0.383E-03
   30 T=  4174. E= -.52312630E+02 F= -.51210990E+02 E0= -.51085578E+02  EK= 0.64749E+01 SP= -.77E+01 SK= 0.90E-01
 bond charge predicted
 prediction of wavefunctions
       N       E                     dE             d eps       ncg     rms          rms(c)
DAV:   1    -0.503037881144E+02    0.90720E+00   -0.31999E+02   160   0.755E+01    0.435E+00
DAV:   2    -0.516469093192E+02   -0.13431E+01   -0.11503E+01   200   0.121E+01    0.104E+01
DAV:   3    -0.508823379862E+02    0.76457E+00   -0.13178E+01   240   0.789E+00    0.457E+00
DAV:   4    -0.510609215549E+02   -0.17858E+00   -0.28878E+00   260   0.636E+00    0.449E+00
DAV:   5    -0.509534008739E+02    0.10752E+00   -0.17313E+00   260   0.592E+00    0.373E+00
DAV:   6    -0.509362221296E+02    0.17179E-01   -0.13435E+00   240   0.423E+00    0.266E+00
DAV:   7    -0.509660194999E+02   -0.29797E-01   -0.12536E+00   240   0.323E+00    0.254E+00
DAV:   8    -0.509458717404E+02    0.20148E-01   -0.79359E-01   240   0.268E+00    0.192E+00
DAV:   9    -0.509181354236E+02    0.27736E-01   -0.22606E-01   220   0.190E+00    0.102E+00
DAV:  10    -0.509197438666E+02   -0.16084E-02   -0.46796E-02   220   0.922E-01    0.544E-01
DAV:  11    -0.509225667444E+02   -0.28229E-02   -0.33527E-02   220   0.790E-01    0.463E-01
DAV:  12    -0.509221162206E+02    0.45052E-03   -0.22129E-02   220   0.593E-01    0.392E-01
DAV:  13    -0.509215746628E+02    0.54156E-03   -0.12200E-02   220   0.347E-01    0.169E-01
DAV:  14    -0.509215397956E+02    0.34867E-04   -0.28825E-03   220   0.221E-01    0.808E-02
DAV:  15    -0.509215920546E+02   -0.52259E-04   -0.64063E-04   200   0.109E-01    0.502E-02
DAV:  16    -0.509216262288E+02   -0.34174E-04   -0.19988E-04   200   0.677E-02    0.297E-02
DAV:  17    -0.509216633836E+02   -0.37155E-04   -0.10424E-04   100   0.510E-02    0.258E-02
DAV:  18    -0.509217002298E+02   -0.36846E-04   -0.35873E-05   120   0.337E-02    0.876E-03
DAV:  19    -0.509217276480E+02   -0.27418E-04   -0.12426E-05   140   0.165E-02    0.951E-03
DAV:  20    -0.509217542236E+02   -0.26576E-04   -0.68109E-06   100   0.962E-03    0.313E-03
DAV:  21    -0.509217756663E+02   -0.21443E-04   -0.31158E-06   120   0.721E-03    0.262E-03
DAV:  22    -0.509217962389E+02   -0.20573E-04   -0.27140E-06   100   0.572E-03    0.154E-03
DAV:  23    -0.509218185037E+02   -0.22265E-04   -0.31470E-06   120   0.485E-03    0.970E-04
DAV:  24    -0.509218374664E+02   -0.18963E-04   -0.36909E-06   100   0.474E-03    0.747E-04
DAV:  25    -0.509218459594E+02   -0.84930E-05   -0.25740E-06   140   0.381E-03
   31 T=  3788. E= -.52309415E+02 F= -.50921846E+02 E0= -.50792846E+02  EK= 0.58764E+01 SP= -.75E+01 SK= 0.24E+00
 bond charge predicted
 prediction of wavefunctions
       N       E                     dE             d eps       ncg     rms          rms(c)
DAV:   1    -0.498905583640E+02    0.10313E+01   -0.25667E+02   160   0.668E+01    0.501E+00
DAV:   2    -0.526304301814E+02   -0.27399E+01   -0.27779E+01   220   0.172E+01    0.124E+01
DAV:   3    -0.507315776032E+02    0.18989E+01   -0.15868E+01   240   0.140E+01    0.738E+00
DAV:   4    -0.502822090811E+02    0.44937E+00   -0.58222E+00   240   0.835E+00    0.403E+00
DAV:   5    -0.503643151946E+02   -0.82106E-01   -0.34496E+00   240   0.566E+00    0.338E+00
DAV:   6    -0.502907197084E+02    0.73595E-01   -0.66760E-01   260   0.415E+00    0.241E+00
DAV:   7    -0.503181523948E+02   -0.27433E-01   -0.96193E-01   240   0.349E+00    0.247E+00
DAV:   8    -0.503083357003E+02    0.98167E-02   -0.57264E-01   240   0.284E+00    0.184E+00
DAV:   9    -0.503117192160E+02   -0.33835E-02   -0.33167E-01   220   0.215E+00    0.132E+00
DAV:  10    -0.503027545779E+02    0.89646E-02   -0.17326E-01   220   0.139E+00    0.768E-01
DAV:  11    -0.503022506158E+02    0.50396E-03   -0.45277E-02   220   0.812E-01    0.340E-01
DAV:  12    -0.503020879178E+02    0.16270E-03   -0.92840E-03   220   0.455E-01    0.134E-01
DAV:  13    -0.503023736528E+02   -0.28573E-03   -0.25657E-03   260   0.236E-01    0.127E-01
DAV:  14    -0.503022948248E+02    0.78828E-04   -0.14540E-03   220   0.176E-01    0.769E-02
DAV:  15    -0.503023406315E+02   -0.45807E-04   -0.70550E-04   260   0.124E-01    0.559E-02
DAV:  16    -0.503023457448E+02   -0.51132E-05   -0.25852E-04   180   0.735E-02    0.270E-02
DAV:  17    -0.503023675270E+02   -0.21782E-04   -0.43406E-05   140   0.381E-02    0.156E-02
DAV:  18    -0.503023968009E+02   -0.29274E-04   -0.27627E-05   100   0.195E-02    0.927E-03
DAV:  19    -0.503024091335E+02   -0.12333E-04   -0.83252E-06   140   0.117E-02    0.423E-03
DAV:  20    -0.503024284043E+02   -0.19271E-04   -0.37047E-06   100   0.797E-03    0.212E-03
DAV:  21    -0.503024418901E+02   -0.13486E-04   -0.23783E-06   120   0.552E-03    0.139E-03
DAV:  22    -0.503024529875E+02   -0.11097E-04   -0.16954E-06   100   0.471E-03    0.124E-03
DAV:  23    -0.503024644290E+02   -0.11441E-04   -0.22778E-06   120   0.449E-03    0.996E-04
DAV:  24    -0.503024722763E+02   -0.78473E-05   -0.25053E-06   100   0.405E-03
   32 T=  3120. E= -.52340832E+02 F= -.50302472E+02 E0= -.50178628E+02  EK= 0.48390E+01 SP= -.73E+01 SK= 0.40E+00
 bond charge predicted
 prediction of wavefunctions
       N       E                     dE             d eps       ncg     rms          rms(c)
DAV:   1    -0.488906025248E+02    0.14119E+01   -0.20604E+02   160   0.636E+01    0.371E+00
DAV:   2    -0.499170821363E+02   -0.10265E+01   -0.79657E+00   240   0.110E+01    0.776E+00
DAV:   3    -0.491409196293E+02    0.77616E+00   -0.48167E+00   260   0.860E+00    0.327E+00
DAV:   4    -0.494540375619E+02   -0.31312E+00   -0.35906E+00   260   0.565E+00    0.575E+00
DAV:   5    -0.492493552717E+02    0.20468E+00   -0.25271E+00   240   0.492E+00    0.277E+00
DAV:   6    -0.492816206280E+02   -0.32265E-01   -0.10142E+00   240   0.342E+00    0.223E+00
DAV:   7    -0.492862776688E+02   -0.46570E-02   -0.77157E-01   220   0.273E+00    0.208E+00
DAV:   8    -0.492674218392E+02    0.18856E-01   -0.40739E-01   220   0.204E+00    0.143E+00
DAV:   9    -0.492657432745E+02    0.16786E-02   -0.18604E-01   220   0.146E+00    0.690E-01
DAV:  10    -0.492652202955E+02    0.52298E-03   -0.41404E-02   220   0.885E-01    0.395E-01
DAV:  11    -0.492646949713E+02    0.52532E-03   -0.14671E-02   220   0.571E-01    0.204E-01
DAV:  12    -0.492646832037E+02    0.11768E-04   -0.38194E-03   260   0.285E-01    0.100E-01
DAV:  13    -0.492647931478E+02   -0.10994E-03   -0.15042E-03   240   0.155E-01    0.910E-02
DAV:  14    -0.492647727281E+02    0.20420E-04   -0.63842E-04   260   0.108E-01    0.395E-02
DAV:  15    -0.492648210321E+02   -0.48304E-04   -0.15456E-04   220   0.663E-02    0.270E-02
DAV:  16    -0.492648534893E+02   -0.32457E-04   -0.43265E-05   140   0.390E-02    0.102E-02
DAV:  17    -0.492648736354E+02   -0.20146E-04   -0.13333E-05   140   0.240E-02    0.744E-03
DAV:  18    -0.492648923412E+02   -0.18706E-04   -0.60162E-06   120   0.134E-02    0.384E-03
DAV:  19    -0.492649105053E+02   -0.18164E-04   -0.35837E-06   140   0.685E-03    0.174E-03
DAV:  20    -0.492649239951E+02   -0.13490E-04   -0.22518E-06   100   0.492E-03    0.116E-03
DAV:  21    -0.492649398854E+02   -0.15890E-04   -0.29401E-06   120   0.467E-03    0.886E-04
DAV:  22    -0.492649494262E+02   -0.95408E-05   -0.23423E-06   100   0.406E-03
   33 T=  2304. E= -.52207314E+02 F= -.49264949E+02 E0= -.49154308E+02  EK= 0.35743E+01 SP= -.70E+01 SK= 0.50E+00
Information: wavefunction orthogonal band   80  0.8598
 bond charge predicted
 prediction of wavefunctions
       N       E                     dE             d eps       ncg     rms          rms(c)
DAV:   1    -0.493154602388E+02   -0.50520E-01   -0.30041E+02   160   0.686E+01    0.519E+00
DAV:   2    -0.515953295211E+02   -0.22799E+01   -0.13857E+01   240   0.178E+01    0.116E+01
DAV:   3    -0.496973915221E+02    0.18979E+01   -0.10435E+01   240   0.145E+01    0.502E+00
DAV:   4    -0.497768126520E+02   -0.79421E-01   -0.41076E+00   240   0.739E+00    0.554E+00
DAV:   5    -0.496330622159E+02    0.14375E+00   -0.29061E+00   240   0.499E+00    0.307E+00
DAV:   6    -0.496343337522E+02   -0.12715E-02   -0.12321E+00   240   0.389E+00    0.292E+00
DAV:   7    -0.496481907021E+02   -0.13857E-01   -0.11819E+00   240   0.313E+00    0.267E+00
DAV:   8    -0.495984959328E+02    0.49695E-01   -0.53616E-01   240   0.238E+00    0.108E+00
DAV:   9    -0.496147529061E+02   -0.16257E-01   -0.13537E-01   220   0.161E+00    0.990E-01
DAV:  10    -0.496111428560E+02    0.36101E-02   -0.79581E-02   260   0.121E+00    0.662E-01
DAV:  11    -0.496095956356E+02    0.15472E-02   -0.34295E-02   220   0.804E-01    0.320E-01
DAV:  12    -0.496095626445E+02    0.32991E-04   -0.11334E-02   220   0.445E-01    0.196E-01
DAV:  13    -0.496095992783E+02   -0.36634E-04   -0.42186E-03   240   0.279E-01    0.128E-01
DAV:  14    -0.496095650979E+02    0.34180E-04   -0.11703E-03   220   0.163E-01    0.552E-02
DAV:  15    -0.496096929767E+02   -0.12788E-03   -0.25018E-04   220   0.824E-02    0.379E-02
DAV:  16    -0.496097482615E+02   -0.55285E-04   -0.79425E-05   180   0.521E-02    0.197E-02
DAV:  17    -0.496098234732E+02   -0.75212E-04   -0.16391E-05   100   0.236E-02    0.121E-02
DAV:  18    -0.496098617186E+02   -0.38245E-04   -0.70326E-06   140   0.182E-02    0.778E-03
DAV:  19    -0.496099167706E+02   -0.55052E-04   -0.65019E-06   100   0.107E-02    0.351E-03
DAV:  20    -0.496099497188E+02   -0.32948E-04   -0.35194E-06   120   0.736E-03    0.215E-03
DAV:  21    -0.496099940951E+02   -0.44376E-04   -0.43444E-06   100   0.634E-03    0.111E-03
DAV:  22    -0.496100270364E+02   -0.32941E-04   -0.44164E-06   120   0.502E-03    0.139E-03
DAV:  23    -0.496100432400E+02   -0.16204E-04   -0.22717E-06   100   0.472E-03    0.125E-03
DAV:  24    -0.496100550705E+02   -0.11831E-04   -0.23120E-06   120   0.417E-03    0.726E-04
DAV:  25    -0.496100598219E+02   -0.47514E-05   -0.12679E-06   100   0.331E-03
   34 T=  2303. E= -.52230806E+02 F= -.49610060E+02 E0= -.49507217E+02  EK= 0.35720E+01 SP= -.67E+01 SK= 0.54E+00
 bond charge predicted
 prediction of wavefunctions
       N       E                     dE             d eps       ncg     rms          rms(c)
DAV:   1    -0.508639918626E+02   -0.12539E+01   -0.18334E+02   160   0.583E+01    0.319E+00
DAV:   2    -0.514089382872E+02   -0.54495E+00   -0.53054E+00   160   0.850E+00    0.651E+00
DAV:   3    -0.510548247277E+02    0.35411E+00   -0.54981E+00   240   0.750E+00    0.340E+00
DAV:   4    -0.512526341971E+02   -0.19781E+00   -0.26158E+00   240   0.556E+00    0.454E+00
DAV:   5    -0.510598392741E+02    0.19279E+00   -0.16776E+00   240   0.435E+00    0.189E+00
DAV:   6    -0.510839768482E+02   -0.24138E-01   -0.36790E-01   240   0.293E+00    0.135E+00
DAV:   7    -0.511040847755E+02   -0.20108E-01   -0.30422E-01   240   0.206E+00    0.169E+00
DAV:   8    -0.510821185081E+02    0.21966E-01   -0.21957E-01   240   0.168E+00    0.801E-01
DAV:   9    -0.510854597758E+02   -0.33413E-02   -0.71617E-02   220   0.112E+00    0.492E-01
DAV:  10    -0.510839043159E+02    0.15555E-02   -0.22406E-02   220   0.686E-01    0.260E-01
DAV:  11    -0.510835175636E+02    0.38675E-03   -0.61455E-03   220   0.370E-01    0.127E-01
DAV:  12    -0.510836740043E+02   -0.15644E-03   -0.28950E-03   260   0.214E-01    0.114E-01
DAV:  13    -0.510836171761E+02    0.56828E-04   -0.10486E-03   240   0.129E-01    0.443E-02
DAV:  14    -0.510836647193E+02   -0.47543E-04   -0.17400E-04   220   0.699E-02    0.218E-02
DAV:  15    -0.510837106403E+02   -0.45921E-04   -0.28644E-05   120   0.319E-02    0.116E-02
DAV:  16    -0.510837349776E+02   -0.24337E-04   -0.16020E-05   140   0.248E-02    0.101E-02
DAV:  17    -0.510837519392E+02   -0.16962E-04   -0.12203E-05   100   0.172E-02    0.859E-03
[...]
DAV:   5    -0.527634125056E+02   -0.36069E-02   -0.31521E-01   240   0.243E+00    0.181E+00
DAV:   6    -0.527547988857E+02    0.86136E-02   -0.25299E-01   240   0.210E+00    0.101E+00
DAV:   7    -0.527665761994E+02   -0.11777E-01   -0.21568E-01   260   0.157E+00    0.992E-01
DAV:   8    -0.527575465528E+02    0.90296E-02   -0.10813E-01   260   0.115E+00    0.512E-01
DAV:   9    -0.527566244317E+02    0.92212E-03   -0.32192E-02   220   0.569E-01    0.223E-01
DAV:  10    -0.527569669194E+02   -0.34249E-03   -0.49600E-03   220   0.292E-01    0.110E-01
DAV:  11    -0.527569478308E+02    0.19089E-04   -0.12036E-03   220   0.173E-01    0.521E-02
DAV:  12    -0.527570115419E+02   -0.63711E-04   -0.38819E-04   240   0.100E-01    0.388E-02
DAV:  13    -0.527570278137E+02   -0.16272E-04   -0.20909E-04   160   0.658E-02    0.216E-02
DAV:  14    -0.527570409022E+02   -0.13088E-04   -0.51205E-05   100   0.361E-02    0.103E-02
DAV:  15    -0.527570636233E+02   -0.22721E-04   -0.12070E-05   100   0.182E-02    0.522E-03
DAV:  16    -0.527570820459E+02   -0.18423E-04   -0.56700E-06   120   0.112E-02    0.412E-03
DAV:  17    -0.527570954927E+02   -0.13447E-04   -0.32671E-06   100   0.895E-03    0.216E-03
DAV:  18    -0.527571113635E+02   -0.15871E-04   -0.28455E-06   120   0.541E-03    0.138E-03
DAV:  19    -0.527571267383E+02   -0.15375E-04   -0.29482E-06   100   0.478E-03    0.106E-03
DAV:  20    -0.527571373618E+02   -0.10623E-04   -0.24362E-06   120   0.433E-03    0.843E-04
DAV:  21    -0.527571422360E+02   -0.48743E-05   -0.15261E-06   140   0.372E-03
  128 T=  1925. E= -.52470886E+02 F= -.52757142E+02 E0= -.52662923E+02  EK= 0.29862E+01 SP= -.27E+01 SK= 0.33E-01
 bond charge predicted
 prediction of wavefunctions
       N       E                     dE             d eps       ncg     rms          rms(c)
DAV:   1    -0.518503624109E+02    0.90677E+00   -0.85751E+01   160   0.369E+01    0.234E+00
DAV:   2    -0.520989509745E+02   -0.24859E+00   -0.31210E+00   220   0.720E+00    0.333E+00
DAV:   3    -0.520351779848E+02    0.63773E-01   -0.22353E+00   240   0.515E+00    0.338E+00
DAV:   4    -0.520021661329E+02    0.33012E-01   -0.14111E+00   240   0.307E+00    0.214E+00
DAV:   5    -0.520036966085E+02   -0.15305E-02   -0.48696E-01   240   0.254E+00    0.145E+00
DAV:   6    -0.520123397568E+02   -0.86431E-02   -0.41795E-01   240   0.217E+00    0.141E+00
DAV:   7    -0.520093643447E+02    0.29754E-02   -0.26210E-01   200   0.161E+00    0.870E-01
DAV:   8    -0.520060725450E+02    0.32918E-02   -0.94997E-02   220   0.105E+00    0.372E-01
DAV:   9    -0.520068202023E+02   -0.74766E-03   -0.22003E-02   220   0.525E-01    0.273E-01
DAV:  10    -0.520063222090E+02    0.49799E-03   -0.64791E-03   220   0.341E-01    0.149E-01
DAV:  11    -0.520063211266E+02    0.10824E-05   -0.23250E-03   200   0.217E-01    0.868E-02
DAV:  12    -0.520063017409E+02    0.19386E-04   -0.71760E-04   220   0.132E-01    0.390E-02
DAV:  13    -0.520063272283E+02   -0.25487E-04   -0.13855E-04   200   0.612E-02    0.189E-02
DAV:  14    -0.520063422354E+02   -0.15007E-04   -0.45699E-05   100   0.330E-02    0.133E-02
DAV:  15    -0.520063777947E+02   -0.35559E-04   -0.19567E-05   100   0.203E-02    0.830E-03
DAV:  16    -0.520063979991E+02   -0.20204E-04   -0.75671E-06   120   0.153E-02    0.437E-03
DAV:  17    -0.520064184944E+02   -0.20495E-04   -0.38563E-06   100   0.899E-03    0.275E-03
DAV:  18    -0.520064368515E+02   -0.18357E-04   -0.26380E-06   120   0.627E-03    0.165E-03
DAV:  19    -0.520064558608E+02   -0.19009E-04   -0.25818E-06   100   0.511E-03    0.126E-03
DAV:  20    -0.520064702269E+02   -0.14366E-04   -0.21705E-06   120   0.469E-03    0.886E-04
DAV:  21    -0.520064836718E+02   -0.13445E-04   -0.23553E-06   100   0.419E-03    0.812E-04
DAV:  22    -0.520064902497E+02   -0.65780E-05   -0.15958E-06   120   0.338E-03
  129 T=  1546. E= -.52370870E+02 F= -.52006490E+02 E0= -.51905952E+02  EK= 0.23986E+01 SP= -.28E+01 SK= 0.43E-01
 bond charge predicted
 prediction of wavefunctions
       N       E                     dE             d eps       ncg     rms          rms(c)
DAV:   1    -0.518095277550E+02    0.19696E+00   -0.15104E+02   160   0.486E+01    0.342E+00
DAV:   2    -0.526458631107E+02   -0.83634E+00   -0.78392E+00   240   0.110E+01    0.841E+00
DAV:   3    -0.519598108864E+02    0.68605E+00   -0.95417E+00   240   0.861E+00    0.313E+00
DAV:   4    -0.520911079971E+02   -0.13130E+00   -0.19440E+00   220   0.484E+00    0.365E+00
DAV:   5    -0.519945937422E+02    0.96514E-01   -0.14557E+00   240   0.372E+00    0.243E+00
DAV:   6    -0.520111609154E+02   -0.16567E-01   -0.83267E-01   240   0.277E+00    0.159E+00
DAV:   7    -0.520071149074E+02    0.40460E-02   -0.27282E-01   220   0.190E+00    0.117E+00
DAV:   8    -0.520044658412E+02    0.26491E-02   -0.22914E-01   260   0.156E+00    0.902E-01
DAV:   9    -0.519999938013E+02    0.44720E-02   -0.77714E-02   220   0.998E-01    0.342E-01
DAV:  10    -0.520018702707E+02   -0.18765E-02   -0.12126E-02   200   0.506E-01    0.161E-01
DAV:  11    -0.520019612605E+02   -0.90990E-04   -0.57093E-03   220   0.308E-01    0.149E-01
DAV:  12    -0.520018648321E+02    0.96428E-04   -0.29813E-03   220   0.189E-01    0.698E-02
DAV:  13    -0.520018694830E+02   -0.46509E-05   -0.53786E-04   220   0.894E-02    0.335E-02
DAV:  14    -0.520019219324E+02   -0.52449E-04   -0.13782E-04   180   0.540E-02    0.297E-02
DAV:  15    -0.520019649980E+02   -0.43066E-04   -0.61024E-05   100   0.405E-02    0.142E-02
DAV:  16    -0.520019937132E+02   -0.28715E-04   -0.14564E-05   140   0.221E-02    0.818E-03
DAV:  17    -0.520020330672E+02   -0.39354E-04   -0.63672E-06   100   0.116E-02    0.497E-03
DAV:  18    -0.520020618746E+02   -0.28807E-04   -0.40117E-06   120   0.908E-03    0.321E-03
DAV:  19    -0.520020919308E+02   -0.30056E-04   -0.32467E-06   100   0.720E-03    0.164E-03
DAV:  20    -0.520021188584E+02   -0.26928E-04   -0.27701E-06   120   0.554E-03    0.151E-03
DAV:  21    -0.520021466382E+02   -0.27780E-04   -0.31487E-06   100   0.537E-03    0.113E-03
DAV:  22    -0.520021646787E+02   -0.18040E-04   -0.27208E-06   120   0.455E-03    0.954E-04
DAV:  23    -0.520021755175E+02   -0.10839E-04   -0.21065E-06   100   0.408E-03    0.591E-04
DAV:  24    -0.520021801061E+02   -0.45886E-05   -0.13764E-06   140   0.303E-03
  130 T=  1567. E= -.52404226E+02 F= -.52002180E+02 E0= -.51901333E+02  EK= 0.24314E+01 SP= -.29E+01 SK= 0.63E-01
 bond charge predicted
 prediction of wavefunctions
       N       E                     dE             d eps       ncg     rms          rms(c)
DAV:   1    -0.522755453530E+02   -0.27337E+00   -0.98838E+01   160   0.395E+01    0.256E+00
DAV:   2    -0.524826403799E+02   -0.20710E+00   -0.29270E+00   200   0.690E+00    0.310E+00
DAV:   3    -0.524370159481E+02    0.45624E-01   -0.19613E+00   240   0.537E+00    0.284E+00
DAV:   4    -0.524263458723E+02    0.10670E-01   -0.11673E+00   240   0.348E+00    0.200E+00
DAV:   5    -0.524107925924E+02    0.15553E-01   -0.52984E-01   240   0.271E+00    0.128E+00
DAV:   6    -0.524306077399E+02   -0.19815E-01   -0.45160E-01   240   0.211E+00    0.152E+00
DAV:   7    -0.524187449865E+02    0.11863E-01   -0.30166E-01   220   0.160E+00    0.101E+00
DAV:   8    -0.524125379497E+02    0.62070E-02   -0.97266E-02   220   0.103E+00    0.466E-01
DAV:   9    -0.524150242421E+02   -0.24863E-02   -0.37508E-02   220   0.570E-01    0.448E-01
DAV:  10    -0.524139224486E+02    0.11018E-02   -0.17800E-02   220   0.430E-01    0.212E-01
DAV:  11    -0.524139263656E+02   -0.39170E-05   -0.47805E-03   220   0.283E-01    0.935E-02
DAV:  12    -0.524139328766E+02   -0.65110E-05   -0.10626E-03   220   0.145E-01    0.507E-02
DAV:  13    -0.524139575321E+02   -0.24655E-04   -0.23074E-04   200   0.668E-02    0.276E-02
DAV:  14    -0.524139826052E+02   -0.25073E-04   -0.68556E-05   100   0.406E-02    0.190E-02
DAV:  15    -0.524140312362E+02   -0.48631E-04   -0.30785E-05   120   0.257E-02    0.101E-02
DAV:  16    -0.524140554410E+02   -0.24205E-04   -0.10489E-05   140   0.190E-02    0.487E-03
DAV:  17    -0.524140831900E+02   -0.27749E-04   -0.55677E-06   100   0.964E-03    0.297E-03
DAV:  18    -0.524141038526E+02   -0.20663E-04   -0.29793E-06   120   0.665E-03    0.189E-03
DAV:  19    -0.524141426742E+02   -0.38822E-04   -0.55434E-06   100   0.673E-03    0.128E-03
DAV:  20    -0.524141611525E+02   -0.18478E-04   -0.35260E-06   120   0.510E-03    0.108E-03
DAV:  21    -0.524141768451E+02   -0.15693E-04   -0.26406E-06   140   0.487E-03    0.924E-04
DAV:  22    -0.524141894998E+02   -0.12655E-04   -0.35772E-06   100   0.417E-03    0.647E-04
DAV:  23    -0.524141935276E+02   -0.40278E-05   -0.15950E-06   120   0.353E-03
  131 T=  1872. E= -.52435490E+02 F= -.52414194E+02 E0= -.52317311E+02  EK= 0.29044E+01 SP= -.30E+01 SK= 0.78E-01
 bond charge predicted
 prediction of wavefunctions
       N       E                     dE             d eps       ncg     rms          rms(c)
DAV:   1    -0.525517103810E+02   -0.13752E+00   -0.90608E+01   160   0.374E+01    0.326E+00
DAV:   2    -0.533259039568E+02   -0.77419E+00   -0.82075E+00   240   0.111E+01    0.735E+00
DAV:   3    -0.526165457158E+02    0.70936E+00   -0.55373E+00   220   0.927E+00    0.302E+00
DAV:   4    -0.527127252094E+02   -0.96179E-01   -0.19687E+00   240   0.481E+00    0.342E+00
DAV:   5    -0.526866068965E+02    0.26118E-01   -0.19673E+00   240   0.386E+00    0.290E+00
DAV:   6    -0.526456828373E+02    0.40924E-01   -0.98965E-01   240   0.270E+00    0.138E+00
DAV:   7    -0.526498175110E+02   -0.41347E-02   -0.26569E-01   260   0.185E+00    0.888E-01
DAV:   8    -0.526495106042E+02    0.30691E-03   -0.12889E-01   220   0.126E+00    0.607E-01
DAV:   9    -0.526502023783E+02   -0.69177E-03   -0.49530E-02   220   0.904E-01    0.364E-01
DAV:  10    -0.526510322969E+02   -0.82992E-03   -0.19491E-02   220   0.650E-01    0.238E-01
DAV:  11    -0.526503424577E+02    0.68984E-03   -0.57112E-03   220   0.373E-01    0.806E-02
DAV:  12    -0.526504617098E+02   -0.11925E-03   -0.13273E-03   220   0.142E-01    0.668E-02
DAV:  13    -0.526504740973E+02   -0.12388E-04   -0.44969E-04   240   0.960E-02    0.250E-02
DAV:  14    -0.526505438738E+02   -0.69777E-04   -0.60030E-05   120   0.366E-02    0.120E-02
DAV:  15    -0.526505788451E+02   -0.34971E-04   -0.12500E-05   140   0.235E-02    0.597E-03
DAV:  16    -0.526506316105E+02   -0.52765E-04   -0.97791E-06   100   0.120E-02    0.399E-03
DAV:  17    -0.526506551169E+02   -0.23506E-04   -0.56718E-06   120   0.100E-02    0.347E-03
DAV:  18    -0.526506785855E+02   -0.23469E-04   -0.41884E-06   100   0.792E-03    0.205E-03
DAV:  19    -0.526507053069E+02   -0.26721E-04   -0.47717E-06   120   0.637E-03    0.168E-03
DAV:  20    -0.526507289740E+02   -0.23667E-04   -0.49364E-06   100   0.614E-03    0.105E-03
DAV:  21    -0.526507388787E+02   -0.99048E-05   -0.24880E-06   120   0.478E-03
  132 T=  2084. E= -.52454426E+02 F= -.52650739E+02 E0= -.52563087E+02  EK= 0.32325E+01 SP= -.31E+01 SK= 0.79E-01
 bond charge predicted
 prediction of wavefunctions
       N       E                     dE             d eps       ncg     rms          rms(c)
DAV:   1    -0.523089815591E+02    0.34175E+00   -0.77602E+01   160   0.360E+01    0.316E+00
DAV:   2    -0.526865899886E+02   -0.37761E+00   -0.52298E+00   240   0.882E+00    0.411E+00
DAV:   3    -0.524232822287E+02    0.26331E+00   -0.19606E+00   220   0.833E+00    0.269E+00
DAV:   4    -0.524488203112E+02   -0.25538E-01   -0.13918E+00   240   0.443E+00    0.262E+00
DAV:   5    -0.524234323553E+02    0.25388E-01   -0.85182E-01   240   0.314E+00    0.162E+00
DAV:   6    -0.524235490808E+02   -0.11673E-03   -0.37960E-01   220   0.220E+00    0.912E-01
DAV:   7    -0.524287472455E+02   -0.51982E-02   -0.93255E-02   200   0.116E+00    0.576E-01
srun: Job step aborted: Waiting up to 32 seconds for job step to finish.
slurmstepd: error: *** JOB 4158 ON mngnode CANCELLED AT 2018-12-04T06:02:46 DUE TO TIME LIMIT ***
slurmstepd: error: *** STEP 4158.0 ON mngnode CANCELLED AT 2018-12-04T06:02:46 DUE TO TIME LIMIT ***
srun: got SIGCONT
forrtl: error (78): process killed (SIGTERM)
Image              PC                Routine            Line        Source             
vasp_std           000000000138501E  Unknown               Unknown  Unknown
libpthread-2.17.s  00002AC3A98D26D0  Unknown               Unknown  Unknown
vasp_std           00000000005C7DCC  Unknown               Unknown  Unknown
vasp_std           00000000005F6CB2  Unknown               Unknown  Unknown

Stack trace terminated abnormally.
forrtl: error (78): process killed (SIGTERM)
Image              PC                Routine            Line        Source             
vasp_std           000000000138501E  Unknown               Unknown  Unknown
libpthread-2.17.s  00002B79B821B6D0  Unknown               Unknown  Unknown

Stack trace terminated abnormally.
forrtl: error (78): process killed (SIGTERM)
Image              PC                Routine            Line        Source             
vasp_std           000000000138501E  Unknown               Unknown  Unknown
libpthread-2.17.s  00002B99E62F66D0  Unknown               Unknown  Unknown
vasp_std           00000000005C7DCC  Unknown               Unknown  Unknown
vasp_std           00000000005F6CB2  Unknown               Unknown  Unknown
vasp_std           0000000000CFD19D  Unknown               Unknown  Unknown

Stack trace terminated abnormally.
forrtl: error (78): process killed (SIGTERM)
Image              PC                Routine            Line        Source             
vasp_std           000000000138501E  Unknown               Unknown  Unknown
libpthread-2.17.s  00002B251289D6D0  Unknown               Unknown  Unknown
vasp_std           00000000005C7DD0  Unknown               Unknown  Unknown
vasp_std           00000000005F6CB2  Unknown               Unknown  Unknown

Stack trace terminated abnormally.
forrtl: error (78): process killed (SIGTERM)
Image              PC                Routine            Line        Source             
vasp_std           000000000138501E  Unknown               Unknown  Unknown
libpthread-2.17.s  00002B05125406D0  Unknown               Unknown  Unknown

Stack trace terminated abnormally.
forrtl: error (78): process killed (SIGTERM)
Image              PC                Routine            Line        Source             
vasp_std           000000000138501E  Unknown               Unknown  Unknown
libpthread-2.17.s  00002B52B19DA6D0  Unknown               Unknown  Unknown

Stack trace terminated abnormally.
forrtl: error (78): process killed (SIGTERM)
Image              PC                Routine            Line        Source             
vasp_std           000000000138501E  Unknown               Unknown  Unknown

Stack trace terminated abnormally.
forrtl: error (78): process killed (SIGTERM)
Image              PC                Routine            Line        Source             
vasp_std           000000000138501E  Unknown               Unknown  Unknown
libpthread-2.17.s  00002B525CB596D0  Unknown               Unknown  Unknown

Stack trace terminated abnormally.
forrtl: error (78): process killed (SIGTERM)
Image              PC                Routine            Line        Source             
vasp_std           000000000138501E  Unknown               Unknown  Unknown
libpthread-2.17.s  00002B91CDE746D0  Unknown               Unknown  Unknown

Stack trace terminated abnormally.
forrtl: error (78): process killed (SIGTERM)
Image              PC                Routine            Line        Source             
vasp_std           000000000138501E  Unknown               Unknown  Unknown
libpthread-2.17.s  00002AE91CB266D0  Unknown               Unknown  Unknown

Stack trace terminated abnormally.
forrtl: error (78): process killed (SIGTERM)
Image              PC                Routine            Line        Source             
vasp_std           000000000138501E  Unknown               Unknown  Unknown
libpthread-2.17.s  00002ADCF47096D0  Unknown               Unknown  Unknown
vasp_std           00000000005C7DCC  Unknown               Unknown  Unknown
vasp_std           00000000005F6CB2  Unknown               Unknown  Unknown
vasp_std           0000000000CFD19D  Unknown               Unknown  Unknown

Stack trace terminated abnormally.
forrtl: error (78): process killed (SIGTERM)
Image              PC                Routine            Line        Source             
vasp_std           000000000138501E  Unknown               Unknown  Unknown
libpthread-2.17.s  00002AD096D766D0  Unknown               Unknown  Unknown
vasp_std           00000000005C7DD0  Unknown               Unknown  Unknown

Stack trace terminated abnormally.
forrtl: error (78): process killed (SIGTERM)
Image              PC                Routine            Line        Source             
vasp_std           000000000138501E  Unknown               Unknown  Unknown
libpthread-2.17.s  00002AB54112D6D0  Unknown               Unknown  Unknown

Stack trace terminated abnormally.
forrtl: error (78): process killed (SIGTERM)
Image              PC                Routine            Line        Source             
vasp_std           000000000138501E  Unknown               Unknown  Unknown
libpthread-2.17.s  00002AF66F7376D0  Unknown               Unknown  Unknown

Stack trace terminated abnormally.
forrtl: error (78): process killed (SIGTERM)
Image              PC                Routine            Line        Source             
vasp_std           000000000138501E  Unknown               Unknown  Unknown
libpthread-2.17.s  00002BA3EC33A6D0  Unknown               Unknown  Unknown
vasp_std           00000000005C7DCC  Unknown               Unknown  Unknown
vasp_std           00000000005F6CB2  Unknown               Unknown  Unknown

Stack trace terminated abnormally.
forrtl: error (78): process killed (SIGTERM)
Image              PC                Routine            Line        Source             
vasp_std           000000000138501E  Unknown               Unknown  Unknown
libpthread-2.17.s  00002B5725E9F6D0  Unknown               Unknown  Unknown
vasp_std           00000000005C7E3D  Unknown               Unknown  Unknown

Stack trace terminated abnormally.
forrtl: error (78): process killed (SIGTERM)
Image              PC                Routine            Line        Source             
vasp_std           000000000138501E  Unknown               Unknown  Unknown
libpthread-2.17.s  00002B738B0C56D0  Unknown               Unknown  Unknown

Stack trace terminated abnormally.
forrtl: error (78): process killed (SIGTERM)
Image              PC                Routine            Line        Source             
vasp_std           000000000138501E  Unknown               Unknown  Unknown
libpthread-2.17.s  00002B0A046096D0  Unknown               Unknown  Unknown
vasp_std           00000000005C7E08  Unknown               Unknown  Unknown
vasp_std           00000000005F6CB2  Unknown               Unknown  Unknown

Stack trace terminated abnormally.
forrtl: error (78): process killed (SIGTERM)
Image              PC                Routine            Line        Source             
vasp_std           000000000138501E  Unknown               Unknown  Unknown
libpthread-2.17.s  00002B12D15EC6D0  Unknown               Unknown  Unknown

Stack trace terminated abnormally.
forrtl: error (78): process killed (SIGTERM)
Image              PC                Routine            Line        Source             
vasp_std           000000000138501E  Unknown               Unknown  Unknown
libpthread-2.17.s  00002AD0262106D0  Unknown               Unknown  Unknown
vasp_std           00000000005C7DE9  Unknown               Unknown  Unknown
vasp_std           00000000005F6CB2  Unknown               Unknown  Unknown
vasp_std           0000000000CFD19D  Unknown               Unknown  Unknown

Stack trace terminated abnormally.
srun: forcing job termination
