 running on   20 total cores
 distrk:  each k-point on   20 cores,    1 groups
 distr:  one band on    1 cores,   20 groups
 using from now: INCAR     
 vasp.5.4.1 05Feb16 (build Sep 02 2018 21:45:25) complex                        
  
 POSCAR found type information on POSCAR  Cu H 
 POSCAR found :  2 types and       5 ions
 scaLAPACK will be used

 ----------------------------------------------------------------------------- 
|                                                                             |
|           W    W    AA    RRRRR   N    N  II  N    N   GGGG   !!!           |
|           W    W   A  A   R    R  NN   N  II  NN   N  G    G  !!!           |
|           W    W  A    A  R    R  N N  N  II  N N  N  G       !!!           |
|           W WW W  AAAAAA  RRRRR   N  N N  II  N  N N  G  GGG   !            |
|           WW  WW  A    A  R   R   N   NN  II  N   NN  G    G                |
|           W    W  A    A  R    R  N    N  II  N    N   GGGG   !!!           |
|                                                                             |
|      For optimal performance we recommend to set                            |
|        NCORE= 4 - approx SQRT( number of cores)                             |
|      NCORE specifies how many cores store one orbital (NPAR=cpu/NCORE).     |
|      This setting can  greatly improve the performance of VASP for DFT.     |
|      The default, NPAR=number of cores might be grossly inefficient         |
|      on modern multi-core architectures or massively parallel machines.     |
|      Do your own testing !!!!                                               |
|      Unfortunately you need to use the default for GW and RPA calculations. |
|      (for HF NCORE is supported but not extensively tested yet)             |
|                                                                             |
 ----------------------------------------------------------------------------- 


 ----------------------------------------------------------------------------- 
|                                                                             |
|  ADVICE TO THIS USER RUNNING 'VASP/VAMP'   (HEAR YOUR MASTER'S VOICE ...):  |
|                                                                             |
|      You have a (more or less) 'small supercell' and for smaller cells      |
|      it is recommended  to use the reciprocal-space projection scheme!      |
|      The real space optimization is not  efficient for small cells and it   |
|      is also less accurate ...                                              |
|      Therefore set LREAL=.FALSE. in the  INCAR file                         |
|                                                                             |
 ----------------------------------------------------------------------------- 

 LDA part: xc-table for Ceperly-Alder, standard interpolation
 POSCAR, INCAR and KPOINTS ok, starting setup
 WARNING: small aliasing (wrap around) errors must be expected
 FFT: planning ...
 WAVECAR not read
 entering main loop
       N       E                     dE             d eps       ncg     rms          rms(c)
DAV:   1     0.207501182357E+03    0.20750E+03   -0.19776E+04  4400   0.114E+03
DAV:   2    -0.107558078719E+02   -0.21826E+03   -0.20610E+03  4860   0.219E+02
DAV:   3    -0.193461515347E+02   -0.85903E+01   -0.85320E+01  5680   0.555E+01
DAV:   4    -0.194000361816E+02   -0.53885E-01   -0.53883E-01  5260   0.534E+00
DAV:   5    -0.194002687604E+02   -0.23258E-03   -0.23258E-03  5600   0.255E-01    0.138E+01
DAV:   6    -0.195410825970E+02   -0.14081E+00   -0.35441E+01  6120   0.816E+01    0.872E+00
DAV:   7    -0.185051389520E+02    0.10359E+01   -0.57152E+01  6480   0.790E+01    0.786E+00
DAV:   8    -0.161930942265E+02    0.23120E+01   -0.91433E+00  6460   0.443E+01    0.251E+00
DAV:   9    -0.160722669641E+02    0.12083E+00   -0.77463E-01  6360   0.195E+01    0.126E+00
DAV:  10    -0.160493720233E+02    0.22895E-01   -0.22807E-01  6040   0.996E+00    0.822E-01
DAV:  11    -0.160320235402E+02    0.17348E-01   -0.55740E-02  5900   0.531E+00    0.341E-01
DAV:  12    -0.160291647428E+02    0.28588E-02   -0.19409E-02  6920   0.251E+00    0.190E-01
DAV:  13    -0.160283378699E+02    0.82687E-03   -0.44989E-03  6000   0.143E+00    0.923E-02
DAV:  14    -0.160279278216E+02    0.41005E-03   -0.16511E-03  5760   0.895E-01    0.600E-02
DAV:  15    -0.160275061610E+02    0.42166E-03   -0.10522E-03  5120   0.594E-01    0.424E-02
DAV:  16    -0.160274515396E+02    0.54621E-04   -0.31981E-04  5620   0.262E-01    0.232E-02
DAV:  17    -0.160276758155E+02   -0.22428E-03   -0.12448E-04  4540   0.113E-01    0.177E-02
DAV:  18    -0.160279395889E+02   -0.26377E-03   -0.34680E-05  4700   0.858E-02    0.521E-03
DAV:  19    -0.160281362575E+02   -0.19667E-03   -0.61062E-05  4560   0.782E-02    0.746E-03
DAV:  20    -0.160281517985E+02   -0.15541E-04   -0.10777E-05  4620   0.524E-02    0.365E-03
DAV:  21    -0.160281557347E+02   -0.39362E-05   -0.12823E-05  4020   0.542E-02
   1 F= -.16028156E+02 E0= -.16028124E+02  d E =-.160282E+02
 curvature:   0.00 expect dE= 0.000E+00 dE for cont linesearch  0.000E+00
 trial: gam= 0.00000 g(F)=  0.478E-01 g(S)=  0.000E+00 ort = 0.000E+00 (trialstep = 0.100E+01)
 search vector abs. value=  0.478E-01
 bond charge predicted
       N       E                     dE             d eps       ncg     rms          rms(c)
DAV:   1    -0.160753211374E+02   -0.47169E-01   -0.14066E+00  4440   0.508E+00    0.664E-02
DAV:   2    -0.160756419145E+02   -0.32078E-03   -0.42101E-03  5120   0.543E-01    0.580E-02
DAV:   3    -0.160756507730E+02   -0.88585E-05   -0.16065E-03  5340   0.760E-01    0.554E-02
DAV:   4    -0.160755473584E+02    0.10341E-03   -0.85580E-04  6560   0.587E-01    0.224E-02
DAV:   5    -0.160755333984E+02    0.13960E-04   -0.91872E-05  5440   0.230E-01    0.935E-03
DAV:   6    -0.160755310969E+02    0.23015E-05   -0.20582E-05  4060   0.115E-01
   2 F= -.16075531E+02 E0= -.16075510E+02  d E =-.473754E-01
 ZBRENT: can't locate minimum, use default step
 trial-energy change:   -0.047375  1 .order   -0.047345   -0.047836   -0.046855
 step:   4.0000(harm= 48.7916)  dis= 0.06390  next Energy=   -17.195144 (dE=-0.117E+01)
 bond charge predicted
       N       E                     dE             d eps       ncg     rms          rms(c)
DAV:   1    -0.162097906700E+02   -0.13426E+00   -0.12810E+01  4400   0.154E+01    0.202E-01
DAV:   2    -0.162129821292E+02   -0.31915E-02   -0.39768E-02  5260   0.127E+00    0.156E-01
DAV:   3    -0.162135770981E+02   -0.59497E-03   -0.17195E-02  6020   0.226E+00    0.197E-01
DAV:   4    -0.162124783235E+02    0.10988E-02   -0.33192E-03  5060   0.150E+00    0.966E-02
DAV:   5    -0.162121909839E+02    0.28734E-03   -0.79693E-04  5120   0.312E-01    0.455E-02
DAV:   6    -0.162120284155E+02    0.16257E-03   -0.61122E-04  6900   0.356E-01    0.228E-02
DAV:   7    -0.162120164157E+02    0.12000E-04   -0.36886E-05  4860   0.115E-01    0.138E-02
DAV:   8    -0.162120063845E+02    0.10031E-04   -0.12645E-04  3900   0.160E-01    0.671E-03
DAV:   9    -0.162120070077E+02   -0.62319E-06   -0.17596E-05  4080   0.557E-02
   3 F= -.16212007E+02 E0= -.16211910E+02  d E =-.183851E+00
 curvature:  -2.97 expect dE=-0.126E+00 dE for cont linesearch -0.123E+00
 ZBRENT: increasing intervall
 opt :  10.0000  next Energy=   -16.466111 (dE=-0.438E+00)
 bond charge predicted
       N       E                     dE             d eps       ncg     rms          rms(c)
DAV:   1    -0.164515965591E+02   -0.23959E+00   -0.53354E+01  4400   0.323E+01    0.436E-01
DAV:   2    -0.164721880892E+02   -0.20592E-01   -0.25832E-01  6040   0.721E+00    0.561E-01
DAV:   3    -0.164641598555E+02    0.80282E-02   -0.10636E-01  6140   0.670E+00    0.251E-01
DAV:   4    -0.164632654242E+02    0.89443E-03   -0.19554E-02  6400   0.268E+00    0.174E-01
DAV:   5    -0.164621164346E+02    0.11490E-02   -0.82331E-03  5780   0.215E+00    0.603E-02
DAV:   6    -0.164620614524E+02    0.54982E-04   -0.83493E-04  5140   0.706E-01    0.263E-02
DAV:   7    -0.164620569898E+02    0.44627E-05   -0.17646E-04  5380   0.203E-01    0.108E-02
DAV:   8    -0.164620710860E+02   -0.14096E-04   -0.13677E-04  4080   0.196E-01    0.134E-02
DAV:   9    -0.164620666288E+02    0.44572E-05   -0.26476E-05  4020   0.785E-02
   4 F= -.16462067E+02 E0= -.16462025E+02  d E =-.433911E+00
 curvature:  -6.11 expect dE=-0.210E+00 dE for cont linesearch -0.189E+00
 ZBRENT: increasing intervall
 opt :  22.0000  next Energy=   -16.851231 (dE=-0.823E+00)
 bond charge predicted
       N       E                     dE             d eps       ncg     rms          rms(c)
DAV:   1    -0.167762525960E+02   -0.31418E+00   -0.25211E+02  4400   0.782E+01    0.105E+00
DAV:   2    -0.168826884203E+02   -0.10644E+00   -0.13702E+00  6540   0.177E+01    0.130E+00
DAV:   3    -0.168420556087E+02    0.40633E-01   -0.53618E-01  6360   0.156E+01    0.534E-01
DAV:   4    -0.168373472940E+02    0.47083E-02   -0.10583E-01  7000   0.718E+00    0.448E-01
DAV:   5    -0.168320703447E+02    0.52769E-02   -0.25628E-02  5900   0.429E+00    0.134E-01
DAV:   6    -0.168317121609E+02    0.35818E-03   -0.36309E-03  5960   0.900E-01    0.592E-02
DAV:   7    -0.168316598328E+02    0.52328E-04   -0.83445E-04  5540   0.470E-01    0.203E-02
DAV:   8    -0.168316541797E+02    0.56531E-05   -0.10886E-04  5280   0.159E-01    0.134E-02
DAV:   9    -0.168316629932E+02   -0.88135E-05   -0.50847E-05  5160   0.130E-01
   5 F= -.16831663E+02 E0= -.16831511E+02  d E =-.803507E+00
 curvature: -12.55 expect dE=-0.217E+00 dE for cont linesearch -0.131E+00
 ZBRENT: increasing intervall
 opt :  46.0000  next Energy=   -16.981434 (dE=-0.953E+00)
 bond charge predicted
       N       E                     dE             d eps       ncg     rms          rms(c)
DAV:   1    -0.162855060889E+02    0.54615E+00   -0.16903E+03  4400   0.262E+02    0.238E+00
DAV:   2    -0.171916749714E+02   -0.90617E+00   -0.10896E+01  6820   0.414E+01    0.241E+00
DAV:   3    -0.169899563617E+02    0.20172E+00   -0.28673E+00  6000   0.288E+01    0.127E+00
DAV:   4    -0.169537803164E+02    0.36176E-01   -0.34810E-01  5800   0.142E+01    0.922E-01
DAV:   5    -0.169381367794E+02    0.15644E-01   -0.63329E-02  6720   0.685E+00    0.220E-01
DAV:   6    -0.169384069852E+02   -0.27021E-03   -0.12650E-02  5440   0.167E+00    0.112E-01
DAV:   7    -0.169382482648E+02    0.15872E-03   -0.23216E-03  5560   0.133E+00    0.817E-02
DAV:   8    -0.169381085215E+02    0.13974E-03   -0.65841E-04  5400   0.570E-01    0.272E-02
DAV:   9    -0.169381246081E+02   -0.16087E-04   -0.27861E-04  5120   0.223E-01    0.230E-02
DAV:  10    -0.169381038688E+02    0.20739E-04   -0.11027E-04  5180   0.169E-01    0.693E-03
DAV:  11    -0.169381341209E+02   -0.30252E-04   -0.17800E-05  4100   0.403E-02    0.557E-03
DAV:  12    -0.169381702587E+02   -0.36138E-04   -0.94067E-06  4080   0.522E-02    0.485E-03
DAV:  13    -0.169382009131E+02   -0.30654E-04   -0.56780E-06  3980   0.307E-02    0.251E-03
DAV:  14    -0.169382241388E+02   -0.23226E-04   -0.61367E-06  4080   0.205E-02    0.247E-03
DAV:  15    -0.169382296734E+02   -0.55346E-05   -0.25443E-06  4160   0.155E-02
   6 F= -.16938230E+02 E0= -.16938183E+02  d E =-.910074E+00
 curvature: -14.31 expect dE=-0.883E-01 dE for cont linesearch -0.317E-01
 ZBRENT: bracketing found
 ZBRENT: interpolating
 opt :  38.4393  next Energy=   -16.977138 (dE=-0.949E+00)
 bond charge predicted
       N       E                     dE             d eps       ncg     rms          rms(c)
DAV:   1    -0.169843519891E+02   -0.46128E-01   -0.87717E+01  4440   0.382E+01    0.704E-01
DAV:   2    -0.169967004150E+02   -0.12348E-01   -0.25117E-01  5920   0.311E+00    0.481E-01
DAV:   3    -0.169935747896E+02    0.31256E-02   -0.36829E-02  5760   0.395E+00    0.350E-01
DAV:   4    -0.169931929106E+02    0.38188E-03   -0.44148E-02  6660   0.516E+00    0.321E-01
DAV:   5    -0.169903025223E+02    0.28904E-02   -0.26615E-02  6200   0.390E+00    0.748E-02
DAV:   6    -0.169901078516E+02    0.19467E-03   -0.36026E-03  6720   0.987E-01    0.414E-02
DAV:   7    -0.169900251581E+02    0.82693E-04   -0.52168E-04  6760   0.434E-01    0.188E-02
DAV:   8    -0.169900318903E+02   -0.67322E-05   -0.73200E-05  5380   0.198E-01
   7 F= -.16990032E+02 E0= -.16989985E+02  d E =-.961876E+00
 curvature: -17.57 expect dE=-0.931E-01 dE for cont linesearch -0.322E-02
 ZBRENT: interpolating
 opt :  35.7436  next Energy=   -16.994488 (dE=-0.966E+00)
 bond charge predicted
       N       E                     dE             d eps       ncg     rms          rms(c)
DAV:   1    -0.169932260972E+02   -0.32009E-02   -0.10307E+01  4440   0.125E+01    0.228E-01
DAV:   2    -0.169945743388E+02   -0.13482E-02   -0.34498E-02  6020   0.241E+00    0.196E-01
DAV:   3    -0.169937184262E+02    0.85591E-03   -0.19291E-02  5860   0.297E+00    0.156E-01
DAV:   4    -0.169930659642E+02    0.65246E-03   -0.26527E-03  6040   0.127E+00    0.679E-02
DAV:   5    -0.169929881264E+02    0.77838E-04   -0.67407E-04  6240   0.417E-01    0.235E-02
DAV:   6    -0.169929823369E+02    0.57895E-05   -0.14873E-04  5260   0.280E-01    0.130E-02
DAV:   7    -0.169929827160E+02   -0.37910E-06   -0.26674E-05  5180   0.806E-02
   8 F= -.16992983E+02 E0= -.16992951E+02  d E =-.964827E+00
 curvature: -24.33 expect dE=-0.135E+00 dE for cont linesearch -0.411E-03
 trial: gam= 0.09751 g(F)=  0.556E-02 g(S)=  0.000E+00 ort = 0.899E-03 (trialstep = 0.795E+01)
 search vector abs. value=  0.619E-02
 bond charge predicted
       N       E                     dE             d eps       ncg     rms          rms(c)
DAV:   1    -0.170303171770E+02   -0.37335E-01   -0.12838E+01  4400   0.156E+01    0.232E-01
DAV:   2    -0.170310741135E+02   -0.75694E-03   -0.21135E-02  5700   0.136E+00    0.162E-01
DAV:   3    -0.170308145903E+02    0.25952E-03   -0.40794E-03  5820   0.160E+00    0.136E-01
DAV:   4    -0.170304387401E+02    0.37585E-03   -0.38323E-03  6480   0.136E+00    0.402E-02
DAV:   5    -0.170303449986E+02    0.93742E-04   -0.11429E-03  7100   0.712E-01    0.210E-02
DAV:   6    -0.170303327505E+02    0.12248E-04   -0.95034E-05  6420   0.230E-01    0.904E-03
DAV:   7    -0.170303314771E+02    0.12734E-05   -0.13676E-05  4840   0.635E-02
   9 F= -.17030331E+02 E0= -.17030310E+02  d E =-.373488E-01
 ZBRENT: can't locate minimum, use default step
 trial-energy change:   -0.037349  1 .order   -0.037573   -0.044915   -0.030232
 step:  31.7948(harm= 24.3150)  dis= 0.19478  next Energy=   -17.073725 (dE=-0.807E-01)
 bond charge predicted
       N       E                     dE             d eps       ncg     rms          rms(c)
DAV:   1    -0.170517008084E+02   -0.21368E-01   -0.12994E+02  4400   0.535E+01    0.699E-01
DAV:   2    -0.170738297270E+02   -0.22129E-01   -0.34252E-01  5760   0.414E+00    0.493E-01
DAV:   3    -0.170707454800E+02    0.30842E-02   -0.29608E-02  5660   0.516E+00    0.442E-01
DAV:   4    -0.170707918309E+02   -0.46351E-04   -0.68441E-02  7440   0.567E+00    0.220E-01
DAV:   5    -0.170663925582E+02    0.43993E-02   -0.30906E-02  7100   0.355E+00    0.824E-02
DAV:   6    -0.170662491649E+02    0.14339E-03   -0.10081E-03  5960   0.694E-01    0.359E-02
DAV:   7    -0.170662075421E+02    0.41623E-04   -0.43516E-04  6900   0.404E-01    0.200E-02
DAV:   8    -0.170661999015E+02    0.76406E-05   -0.73544E-05  5300   0.189E-01
  10 F= -.17066200E+02 E0= -.17066181E+02  d E =-.732172E-01
 curvature: -10.54 expect dE=-0.146E-01 dE for cont linesearch -0.673E-03
 ZBRENT: interpolating
 opt :  28.4117  next Energy=   -17.067264 (dE=-0.743E-01)
 bond charge predicted
       N       E                     dE             d eps       ncg     rms          rms(c)
DAV:   1    -0.170673762538E+02   -0.11687E-02   -0.23018E+00  4400   0.651E+00    0.987E-02
DAV:   2    -0.170675833483E+02   -0.20709E-03   -0.43701E-03  5900   0.906E-01    0.850E-02
DAV:   3    -0.170676027276E+02   -0.19379E-04   -0.24948E-03  5900   0.113E+00    0.869E-02
DAV:   4    -0.170674673293E+02    0.13540E-03   -0.15612E-03  5940   0.854E-01    0.652E-02
DAV:   5    -0.170673552008E+02    0.11213E-03   -0.31888E-04  6120   0.463E-01    0.129E-02
DAV:   6    -0.170673515876E+02    0.36132E-05   -0.57266E-05  5440   0.932E-02
  11 F= -.17067352E+02 E0= -.17067302E+02  d E =-.743689E-01
 curvature: -16.66 expect dE=-0.201E-01 dE for cont linesearch -0.455E-05
 trial: gam= 0.13978 g(F)=  0.121E-02 g(S)=  0.000E+00 ort =-0.411E-04 (trialstep = 0.120E+02)
 search vector abs. value=  0.132E-02
 bond charge predicted
       N       E                     dE             d eps       ncg     rms          rms(c)
DAV:   1    -0.170805633724E+02   -0.13208E-01   -0.88668E+00  4400   0.120E+01    0.218E-01
DAV:   2    -0.170812956155E+02   -0.73224E-03   -0.16792E-02  6120   0.820E-01    0.146E-01
DAV:   3    -0.170809485703E+02    0.34705E-03   -0.12947E-03  4960   0.898E-01    0.111E-01
DAV:   4    -0.170809606503E+02   -0.12080E-04   -0.26176E-03  5980   0.122E+00    0.637E-02
DAV:   5    -0.170807272783E+02    0.23337E-03   -0.19766E-03  7800   0.891E-01    0.278E-02
DAV:   6    -0.170807106532E+02    0.16625E-04   -0.14589E-04  6060   0.314E-01    0.124E-02
DAV:   7    -0.170807071704E+02    0.34828E-05   -0.10974E-05  4180   0.400E-02
  12 F= -.17080707E+02 E0= -.17080673E+02  d E =-.133556E-01
 ZBRENT: can't locate minimum, use default step
 trial-energy change:   -0.013356  1 .order   -0.013429   -0.014449   -0.012410
 step:  48.1653(harm= 85.3362)  dis= 0.01885  next Energy=   -17.118551 (dE=-0.512E-01)
 bond charge predicted
       N       E                     dE             d eps       ncg     rms          rms(c)
DAV:   1    -0.170980133605E+02   -0.17303E-01   -0.86691E+01  4400   0.404E+01    0.710E-01
DAV:   2    -0.171120270593E+02   -0.14014E-01   -0.24354E-01  6120   0.501E+00    0.515E-01
DAV:   3    -0.171107077985E+02    0.13193E-02   -0.57101E-02  5720   0.575E+00    0.463E-01
DAV:   4    -0.171102339424E+02    0.47386E-03   -0.94084E-02  7460   0.648E+00    0.265E-01
DAV:   5    -0.171057432487E+02    0.44907E-02   -0.25761E-02  6960   0.355E+00    0.152E-01
DAV:   6    -0.171051667921E+02    0.57646E-03   -0.16278E-03  6360   0.117E+00    0.578E-02
DAV:   7    -0.171050213497E+02    0.14544E-03   -0.55106E-04  6940   0.269E-01    0.365E-02
DAV:   8    -0.171049565112E+02    0.64839E-04   -0.21805E-04  6520   0.270E-01    0.170E-02
DAV:   9    -0.171049518432E+02    0.46680E-05   -0.74038E-05  5100   0.180E-01
  13 F= -.17104952E+02 E0= -.17104894E+02  d E =-.376003E-01
 curvature: -34.74 expect dE=-0.304E-01 dE for cont linesearch -0.175E-02
 ZBRENT: extrapolating
 opt :  60.2085  next Energy=   -17.106504 (dE=-0.392E-01)
 bond charge predicted
       N       E                     dE             d eps       ncg     rms          rms(c)
DAV:   1    -0.171056082911E+02   -0.65178E-03   -0.88392E+00  4400   0.123E+01    0.222E-01
DAV:   2    -0.171063870222E+02   -0.77873E-03   -0.18633E-02  5620   0.120E+00    0.154E-01
DAV:   3    -0.171061918261E+02    0.19520E-03   -0.37060E-03  5760   0.155E+00    0.130E-01
DAV:   4    -0.171059553930E+02    0.23643E-03   -0.56131E-03  7140   0.165E+00    0.570E-02
DAV:   5    -0.171057702813E+02    0.18511E-03   -0.21549E-03  7220   0.992E-01    0.267E-02
DAV:   6    -0.171057550271E+02    0.15254E-04   -0.13040E-04  5640   0.300E-01    0.102E-02
DAV:   7    -0.171057532519E+02    0.17752E-05   -0.13141E-05  3820   0.480E-02
  14 F= -.17105753E+02 E0= -.17105586E+02  d E =-.384017E-01
 curvature: -30.73 expect dE=-0.430E-01 dE for cont linesearch -0.298E-03
 trial: gam= 1.12964 g(F)=  0.140E-02 g(S)=  0.000E+00 ort =-0.113E-03 (trialstep = 0.101E+02)
 search vector abs. value=  0.282E-02
 bond charge predicted
       N       E                     dE             d eps       ncg     rms          rms(c)
DAV:   1    -0.171177767619E+02   -0.12022E-01   -0.95620E+00  4400   0.137E+01    0.219E-01
DAV:   2    -0.171189153283E+02   -0.11386E-02   -0.23322E-02  5540   0.177E+00    0.170E-01
DAV:   3    -0.171188201906E+02    0.95138E-04   -0.99265E-03  5620   0.231E+00    0.146E-01
DAV:   4    -0.171182719389E+02    0.54825E-03   -0.85126E-03  7900   0.194E+00    0.634E-02
DAV:   5    -0.171180587452E+02    0.21319E-03   -0.14114E-03  6920   0.787E-01    0.231E-02
DAV:   6    -0.171180511705E+02    0.75748E-05   -0.10404E-04  6660   0.156E-01    0.125E-02
DAV:   7    -0.171180477457E+02    0.34247E-05   -0.18234E-05  4580   0.536E-02
  15 F= -.17118048E+02 E0= -.17117870E+02  d E =-.122945E-01
 ZBRENT: can't locate minimum, use default step
 trial-energy change:   -0.012294  1 .order   -0.011974   -0.012843   -0.011105
 step:  40.4013(harm= 74.6603)  dis= 0.00000  next Energy=   -17.153219 (dE=-0.475E-01)
 bond charge predicted
       N       E                     dE             d eps       ncg     rms          rms(c)
DAV:   1    -0.171349312482E+02   -0.16880E-01   -0.90107E+01  4400   0.444E+01    0.705E-01
DAV:   2    -0.171539009029E+02   -0.18970E-01   -0.30610E-01  6260   0.757E+00    0.636E-01
DAV:   3    -0.171506868755E+02    0.32140E-02   -0.15632E-01  5700   0.858E+00    0.509E-01
DAV:   4    -0.171440435361E+02    0.66433E-02   -0.70896E-02  7640   0.559E+00    0.276E-01
DAV:   5    -0.171421716716E+02    0.18719E-02   -0.10619E-02  6660   0.240E+00    0.146E-01
DAV:   6    -0.171416765226E+02    0.49515E-03   -0.21833E-03  6340   0.131E+00    0.568E-02
DAV:   7    -0.171415837450E+02    0.92778E-04   -0.40854E-04  5740   0.234E-01    0.317E-02
DAV:   8    -0.171415547116E+02    0.29033E-04   -0.11546E-04  6140   0.257E-01    0.205E-02
DAV:   9    -0.171415433576E+02    0.11354E-04   -0.63942E-05  5300   0.186E-01    0.624E-03
DAV:  10    -0.171415438356E+02   -0.47797E-06   -0.12081E-05  4420   0.346E-02
  16 F= -.17141544E+02 E0= -.17141432E+02  d E =-.357906E-01
 curvature: -59.53 expect dE=-0.324E-01 dE for cont linesearch -0.399E-02
 ZBRENT: increasing intervall
 opt : 101.0032  next Energy=   -17.127650 (dE=-0.219E-01)
 bond charge predicted
       N       E                     dE             d eps       ncg     rms          rms(c)
DAV:   1    -0.170292733432E+02    0.11227E+00   -0.42194E+02  4400   0.112E+02    0.160E+00
DAV:   2    -0.171836900101E+02   -0.15442E+00   -0.20887E+00  6840   0.194E+01    0.147E+00
DAV:   3    -0.171533284030E+02    0.30362E-01   -0.77255E-01  5720   0.192E+01    0.971E-01
DAV:   4    -0.171284993246E+02    0.24829E-01   -0.33035E-01  7820   0.116E+01    0.510E-01
DAV:   5    -0.171188340400E+02    0.96653E-02   -0.81426E-02  6800   0.553E+00    0.292E-01
DAV:   6    -0.171173299896E+02    0.15041E-02   -0.98908E-03  5600   0.275E+00    0.859E-02
DAV:   7    -0.171170604653E+02    0.26952E-03   -0.25282E-03  7580   0.914E-01    0.398E-02
DAV:   8    -0.171170814333E+02   -0.20968E-04   -0.58337E-04  5640   0.329E-01    0.345E-02
DAV:   9    -0.171170600998E+02    0.21334E-04   -0.13693E-04  5440   0.307E-01    0.120E-02
DAV:  10    -0.171170573872E+02    0.27126E-05   -0.35894E-05  5700   0.122E-01
  17 F= -.17117057E+02 E0= -.17116877E+02  d E =-.113041E-01
 curvature: 207.11 expect dE= 0.721E+00 dE for cont linesearch  0.142E+00
 ZBRENT: bracketing found
 ZBRENT: interpolating
 opt :  54.8584  next Energy=   -17.144689 (dE=-0.389E-01)
 bond charge predicted
       N       E                     dE             d eps       ncg     rms          rms(c)
DAV:   1    -0.171161338220E+02    0.92628E-03   -0.22367E+02  4400   0.757E+01    0.103E+00
DAV:   2    -0.171628602476E+02   -0.46726E-01   -0.73055E-01  5880   0.487E+00    0.724E-01
DAV:   3    -0.171528096599E+02    0.10051E-01   -0.36275E-02  5700   0.374E+00    0.487E-01
DAV:   4    -0.171511700054E+02    0.16397E-02   -0.53050E-02  6620   0.577E+00    0.473E-01
DAV:   5    -0.171471289622E+02    0.40410E-02   -0.46062E-02  6140   0.534E+00    0.118E-01
DAV:   6    -0.171461001035E+02    0.10289E-02   -0.11345E-02  7280   0.219E+00    0.968E-02
DAV:   7    -0.171459301266E+02    0.16998E-03   -0.10064E-03  6580   0.776E-01    0.311E-02
DAV:   8    -0.171459174507E+02    0.12676E-04   -0.18936E-04  7020   0.282E-01    0.223E-02
DAV:   9    -0.171459158212E+02    0.16296E-05   -0.65735E-05  5240   0.171E-01
  18 F= -.17145916E+02 E0= -.17145755E+02  d E =-.401626E-01
 curvature:  -4.60 expect dE=-0.285E-02 dE for cont linesearch -0.778E-05
 trial: gam= 0.18626 g(F)=  0.620E-03 g(S)=  0.000E+00 ort = 0.691E-04 (trialstep = 0.191E+02)
 search vector abs. value=  0.743E-03
 bond charge predicted
       N       E                     dE             d eps       ncg     rms          rms(c)
DAV:   1    -0.171540125339E+02   -0.80951E-02   -0.19050E+00  4420   0.580E+00    0.131E-01
DAV:   2    -0.171545857135E+02   -0.57318E-03   -0.11570E-02  5720   0.145E+00    0.110E-01
DAV:   3    -0.171543190503E+02    0.26666E-03   -0.74537E-03  5660   0.186E+00    0.945E-02
DAV:   4    -0.171541202395E+02    0.19881E-03   -0.11153E-03  5980   0.819E-01    0.416E-02
DAV:   5    -0.171541127891E+02    0.74504E-05   -0.24440E-04  5320   0.411E-01    0.217E-02
DAV:   6    -0.171541047997E+02    0.79894E-05   -0.73440E-05  5280   0.205E-01
  19 F= -.17154105E+02 E0= -.17154009E+02  d E =-.818898E-02
 trial-energy change:   -0.008189  1 .order   -0.008318   -0.012050   -0.004587
 step:  33.3667(harm= 30.7620)  dis= 0.02706  next Energy=   -17.155773 (dE=-0.986E-02)
 bond charge predicted
       N       E                     dE             d eps       ncg     rms          rms(c)
DAV:   1    -0.171557260763E+02   -0.16133E-02   -0.10735E+00  4400   0.433E+00    0.999E-02
DAV:   2    -0.171560967540E+02   -0.37068E-03   -0.70958E-03  5780   0.115E+00    0.848E-02
DAV:   3    -0.171559103715E+02    0.18638E-03   -0.41727E-03  5640   0.139E+00    0.692E-02
DAV:   4    -0.171558190929E+02    0.91279E-04   -0.48740E-04  5440   0.530E-01    0.274E-02
DAV:   5    -0.171558148867E+02    0.42062E-05   -0.11917E-04  6160   0.232E-01    0.129E-02
DAV:   6    -0.171558131782E+02    0.17085E-05   -0.33718E-05  5020   0.146E-01
  20 F= -.17155813E+02 E0= -.17155755E+02  d E =-.989736E-02
 curvature: -17.18 expect dE=-0.223E-02 dE for cont linesearch -0.297E-04
 ZBRENT: interpolating
 opt :  31.5105  next Energy=   -17.155846 (dE=-0.993E-02)
 bond charge predicted
       N       E                     dE             d eps       ncg     rms          rms(c)
DAV:   1    -0.171558273417E+02   -0.12455E-04   -0.18070E-02  4460   0.560E-01    0.124E-02
DAV:   2    -0.171558350222E+02   -0.76805E-05   -0.14437E-04  5240   0.164E-01    0.117E-02
DAV:   3    -0.171558288197E+02    0.62026E-05   -0.68869E-05  4620   0.178E-01
  21 F= -.17155829E+02 E0= -.17155769E+02  d E =-.991300E-02
 curvature: -19.23 expect dE=-0.218E-02 dE for cont linesearch -0.382E-09
 trial: gam= 0.20676 g(F)=  0.113E-03 g(S)=  0.000E+00 ort =-0.121E-06 (trialstep = 0.215E+02)
 search vector abs. value=  0.145E-03
 bond charge predicted
       N       E                     dE             d eps       ncg     rms          rms(c)
DAV:   1    -0.171567705188E+02   -0.93550E-03   -0.19871E+00  4400   0.629E+00    0.106E-01
DAV:   2    -0.171570281625E+02   -0.25764E-03   -0.50896E-03  6000   0.633E-01    0.700E-02
DAV:   3    -0.171571695482E+02   -0.14139E-03   -0.27426E-03  5540   0.118E+00    0.824E-02
DAV:   4    -0.171569296032E+02    0.23994E-03   -0.22631E-03  6180   0.105E+00    0.390E-02
DAV:   5    -0.171568939886E+02    0.35615E-04   -0.17763E-04  5280   0.370E-01    0.496E-03
DAV:   6    -0.171568944473E+02   -0.45876E-06   -0.17863E-05  4600   0.467E-02
  22 F= -.17156894E+02 E0= -.17156867E+02  d E =-.106563E-02
 trial-energy change:   -0.001066  1 .order   -0.001153   -0.002438    0.000131
 step:  20.1798(harm= 20.4411)  dis= 0.01513  next Energy=   -17.156899 (dE=-0.107E-02)
 bond charge predicted
       N       E                     dE             d eps       ncg     rms          rms(c)
DAV:   1    -0.171568936861E+02    0.30250E-06   -0.79458E-03  4760   0.399E-01    0.709E-03
DAV:   2    -0.171568957432E+02   -0.20571E-05   -0.39846E-05  5020   0.944E-02
  23 F= -.17156896E+02 E0= -.17156864E+02  d E =-.106692E-02
 curvature: -12.35 expect dE=-0.163E-03 dE for cont linesearch -0.575E-06
 trial: gam= 0.11164 g(F)=  0.132E-04 g(S)=  0.000E+00 ort = 0.260E-05 (trialstep = 0.213E+02)
 search vector abs. value=  0.156E-04
 bond charge predicted
       N       E                     dE             d eps       ncg     rms          rms(c)
DAV:   1    -0.171572700002E+02   -0.37631E-03   -0.27204E-01  4440   0.225E+00    0.368E-02
DAV:   2    -0.171573003729E+02   -0.30373E-04   -0.62830E-04  5260   0.212E-01    0.273E-02
DAV:   3    -0.171573022174E+02   -0.18445E-05   -0.19330E-04  5160   0.334E-01    0.256E-02
DAV:   4    -0.171572881499E+02    0.14067E-04   -0.25174E-04  5000   0.347E-01    0.131E-02
DAV:   5    -0.171572807488E+02    0.74011E-05   -0.60612E-05  4920   0.174E-01
  24 F= -.17157281E+02 E0= -.17157247E+02  d E =-.385006E-03
 trial-energy change:   -0.000385  1 .order   -0.000243   -0.000287   -0.000200
 step:  70.0508(harm= 70.0508)  dis= 0.00000  next Energy=   -17.157368 (dE=-0.472E-03)
 bond charge predicted
       N       E                     dE             d eps       ncg     rms          rms(c)
DAV:   1    -0.171576688849E+02   -0.38073E-03   -0.14331E+00  4400   0.516E+00    0.878E-02
DAV:   2    -0.171578748113E+02   -0.20593E-03   -0.36941E-03  5700   0.828E-01    0.783E-02
DAV:   3    -0.171578447136E+02    0.30098E-04   -0.20623E-03  5560   0.102E+00    0.619E-02
DAV:   4    -0.171577383690E+02    0.10634E-03   -0.11125E-03  7740   0.689E-01    0.360E-02
DAV:   5    -0.171576993244E+02    0.39045E-04   -0.18976E-04  5740   0.389E-01    0.967E-03
DAV:   6    -0.171576981403E+02    0.11841E-05   -0.18381E-05  5280   0.709E-02
  25 F= -.17157698E+02 E0= -.17157645E+02  d E =-.802397E-03
 curvature: -40.47 expect dE=-0.246E-03 dE for cont linesearch -0.899E-05
 ZBRENT: extrapolating
 opt :  82.1001  next Energy=   -17.157709 (dE=-0.814E-03)
 bond charge predicted
       N       E                     dE             d eps       ncg     rms          rms(c)
DAV:   1    -0.171577882605E+02   -0.88936E-04   -0.87364E-02  4400   0.127E+00    0.210E-02
DAV:   2    -0.171578049916E+02   -0.16731E-04   -0.23708E-04  5660   0.214E-01    0.197E-02
DAV:   3    -0.171578017688E+02    0.32229E-05   -0.12051E-04  5640   0.245E-01    0.145E-02
DAV:   4    -0.171577971009E+02    0.46679E-05   -0.53418E-05  4560   0.164E-01
  26 F= -.17157797E+02 E0= -.17157737E+02  d E =-.901358E-03
 curvature: -50.47 expect dE=-0.317E-03 dE for cont linesearch -0.179E-05
 trial: gam= 0.46299 g(F)=  0.628E-05 g(S)=  0.000E+00 ort = 0.742E-06 (trialstep = 0.334E+02)
 search vector abs. value=  0.103E-04
 bond charge predicted
       N       E                     dE             d eps       ncg     rms          rms(c)
DAV:   1    -0.171578561716E+02   -0.54403E-04   -0.12046E-01  4400   0.151E+00    0.322E-02
DAV:   2    -0.171580965942E+02   -0.24042E-03   -0.15218E-03  5820   0.755E-01    0.775E-02
DAV:   3    -0.171578694714E+02    0.22712E-03   -0.93822E-04  6560   0.658E-01    0.190E-02
DAV:   4    -0.171578680574E+02    0.14140E-05   -0.37282E-05  5220   0.163E-01
  27 F= -.17157868E+02 E0= -.17157779E+02  d E =-.709565E-04
 trial-energy change:   -0.000071  1 .order   -0.000139   -0.000221   -0.000057
 step:  45.1093(harm= 45.1093)  dis= 0.00000  next Energy=   -17.157946 (dE=-0.149E-03)
 bond charge predicted
       N       E                     dE             d eps       ncg     rms          rms(c)
DAV:   1    -0.171578812198E+02   -0.11748E-04   -0.14678E-02  4420   0.547E-01    0.156E-02
DAV:   2    -0.171579552658E+02   -0.74046E-04   -0.37708E-04  5480   0.392E-01    0.457E-02
DAV:   3    -0.171578816288E+02    0.73637E-04   -0.27784E-04  4580   0.363E-01    0.922E-03
DAV:   4    -0.171578813568E+02    0.27203E-06   -0.12871E-05  3760   0.788E-02
  28 F= -.17157881E+02 E0= -.17157779E+02  d E =-.842558E-04
 curvature: -35.11 expect dE=-0.228E-03 dE for cont linesearch -0.767E-06
 trial: gam= 1.22878 g(F)=  0.648E-05 g(S)=  0.000E+00 ort =-0.474E-06 (trialstep = 0.177E+02)
 search vector abs. value=  0.209E-04
 bond charge predicted
       N       E                     dE             d eps       ncg     rms          rms(c)
DAV:   1    -0.171579728078E+02   -0.91179E-04   -0.44617E-02  4400   0.889E-01    0.247E-02
DAV:   2    -0.171580057908E+02   -0.32983E-04   -0.29928E-04  5960   0.217E-01    0.302E-02
DAV:   3    -0.171579974930E+02    0.82978E-05   -0.21681E-04  5720   0.318E-01    0.259E-02
DAV:   4    -0.171579813945E+02    0.16099E-04   -0.35169E-05  4660   0.136E-01    0.107E-02
DAV:   5    -0.171579803532E+02    0.10413E-05   -0.10666E-05  4200   0.952E-02
  29 F= -.17157980E+02 E0= -.17157846E+02  d E =-.989964E-04
 trial-energy change:   -0.000099  1 .order   -0.000082   -0.000104   -0.000059
 step:  40.9683(harm= 40.9683)  dis= 0.00222  next Energy=   -17.158002 (dE=-0.121E-03)
 bond charge predicted
       N       E                     dE             d eps       ncg     rms          rms(c)
DAV:   1    -0.171580962123E+02   -0.11482E-03   -0.77747E-02  4400   0.117E+00    0.341E-02
DAV:   2    -0.171581584868E+02   -0.62275E-04   -0.53623E-04  5760   0.296E-01    0.483E-02
DAV:   3    -0.171581307343E+02    0.27753E-04   -0.34826E-04  5700   0.406E-01    0.342E-02
DAV:   4    -0.171581049611E+02    0.25773E-04   -0.11212E-04  4720   0.243E-01    0.165E-02
DAV:   5    -0.171580995009E+02    0.54602E-05   -0.25065E-05  4640   0.133E-01
  30 F= -.17158100E+02 E0= -.17157930E+02  d E =-.218144E-03
 curvature: -72.47 expect dE=-0.288E-03 dE for cont linesearch -0.210E-05
 trial: gam= 0.38179 g(F)=  0.397E-05 g(S)=  0.000E+00 ort = 0.777E-06 (trialstep = 0.223E+02)
 search vector abs. value=  0.761E-05
 bond charge predicted
       N       E                     dE             d eps       ncg     rms          rms(c)
DAV:   1    -0.171581913059E+02   -0.86345E-04   -0.14965E-01  4400   0.159E+00    0.308E-02
DAV:   2    -0.171583298732E+02   -0.13857E-03   -0.60972E-04  5200   0.387E-01    0.657E-02
DAV:   3    -0.171581985768E+02    0.13130E-03   -0.38146E-04  5300   0.415E-01    0.198E-02
DAV:   4    -0.171581902575E+02    0.83193E-05   -0.27164E-05  5280   0.650E-02
  31 F= -.17158190E+02 E0= -.17158010E+02  d E =-.907566E-04
 trial-energy change:   -0.000091  1 .order   -0.000070   -0.000095   -0.000045
 step:  42.7165(harm= 42.7165)  dis= 0.00015  next Energy=   -17.158191 (dE=-0.911E-04)
 bond charge predicted
       N       E                     dE             d eps       ncg     rms          rms(c)
DAV:   1    -0.171581501480E+02    0.48429E-04   -0.12506E-01  4480   0.146E+00    0.273E-02
DAV:   2    -0.171582720032E+02   -0.12186E-03   -0.51365E-04  5760   0.348E-01    0.633E-02
DAV:   3    -0.171581614595E+02    0.11054E-03   -0.33190E-04  5800   0.390E-01    0.198E-02
DAV:   4    -0.171581558289E+02    0.56307E-05   -0.30619E-05  4700   0.144E-01
  32 F= -.17158156E+02 E0= -.17157970E+02  d E =-.563280E-04
 curvature: -38.07 expect dE=-0.187E-03 dE for cont linesearch -0.483E-06
 trial: gam= 1.19328 g(F)=  0.490E-05 g(S)=  0.000E+00 ort = 0.311E-06 (trialstep = 0.122E+02)
 search vector abs. value=  0.165E-04
 bond charge predicted
       N       E                     dE             d eps       ncg     rms          rms(c)
DAV:   1    -0.171581785514E+02   -0.17092E-04   -0.95007E-02  4400   0.137E+00    0.237E-02
DAV:   2    -0.171582108902E+02   -0.32339E-04   -0.25728E-04  5800   0.271E-01    0.378E-02
DAV:   3    -0.171581971550E+02    0.13735E-04   -0.16179E-04  5640   0.274E-01    0.255E-02
DAV:   4    -0.171581837970E+02    0.13358E-04   -0.46495E-05  4580   0.165E-01    0.163E-02
DAV:   5    -0.171581795551E+02    0.42419E-05   -0.18869E-05  4320   0.125E-01
  33 F= -.17158180E+02 E0= -.17157994E+02  d E =-.237262E-04
 trial-energy change:   -0.000024  1 .order   -0.000049   -0.000064   -0.000033
 step:  25.1862(harm= 25.1862)  dis= 0.00000  next Energy=   -17.158222 (dE=-0.664E-04)
 bond charge predicted
       N       E                     dE             d eps       ncg     rms          rms(c)
DAV:   1    -0.171582617656E+02   -0.77969E-04   -0.10813E-01  4400   0.145E+00    0.236E-02
DAV:   2    -0.171583344693E+02   -0.72704E-04   -0.35368E-04  5720   0.327E-01    0.548E-02
DAV:   3    -0.171582743956E+02    0.60074E-04   -0.21299E-04  5700   0.310E-01    0.179E-02
DAV:   4    -0.171582659677E+02    0.84279E-05   -0.27845E-05  4620   0.638E-02
  34 F= -.17158266E+02 E0= -.17158082E+02  d E =-.110139E-03
 curvature: -39.36 expect dE=-0.567E-04 dE for cont linesearch -0.227E-05
 ZBRENT: increasing intervall
 opt :  51.1793  next Energy=   -17.158246 (dE=-0.901E-04)
 bond charge predicted
       N       E                     dE             d eps       ncg     rms          rms(c)
DAV:   1    -0.171584248215E+02   -0.15043E-03   -0.43252E-01  4400   0.289E+00    0.479E-02
DAV:   2    -0.171586376975E+02   -0.21288E-03   -0.12214E-03  5800   0.587E-01    0.919E-02
DAV:   3    -0.171584754751E+02    0.16222E-03   -0.75273E-04  6080   0.580E-01    0.395E-02
DAV:   4    -0.171584366533E+02    0.38822E-04   -0.14941E-04  6480   0.192E-01    0.195E-02
DAV:   5    -0.171584280397E+02    0.86135E-05   -0.47364E-05  5280   0.179E-01
  35 F= -.17158428E+02 E0= -.17158253E+02  d E =-.272211E-03
 curvature: 346.35 expect dE= 0.284E-02 dE for cont linesearch  0.295E-03
 ZBRENT: bracketing found
 ZBRENT: interpolating
 opt :  30.5586  next Energy=   -17.158269 (dE=-0.113E-03)
 bond charge predicted
       N       E                     dE             d eps       ncg     rms          rms(c)
DAV:   1    -0.171582979168E+02    0.13874E-03   -0.27212E-01  4400   0.229E+00    0.386E-02
DAV:   2    -0.171583129925E+02   -0.15076E-04   -0.54630E-04  5180   0.188E-01    0.296E-02
DAV:   3    -0.171583951304E+02   -0.82138E-04   -0.25036E-04  5560   0.386E-01    0.676E-02
DAV:   4    -0.171583260986E+02    0.69032E-04   -0.45764E-04  4660   0.446E-01    0.322E-02
DAV:   5    -0.171582864402E+02    0.39658E-04   -0.11606E-04  6020   0.252E-01    0.530E-03
DAV:   6    -0.171582859729E+02    0.46723E-06   -0.68266E-06  4260   0.493E-02
  36 F= -.17158286E+02 E0= -.17158104E+02  d E =-.130144E-03
 curvature:  -3.08 expect dE=-0.647E-05 dE for cont linesearch -0.160E-07
 trial: gam= 0.37756 g(F)=  0.210E-05 g(S)=  0.000E+00 ort =-0.292E-06 (trialstep = 0.159E+02)
 search vector abs. value=  0.423E-05
 bond charge predicted
       N       E                     dE             d eps       ncg     rms          rms(c)
DAV:   1    -0.171583338085E+02   -0.47368E-04   -0.92300E-03  4540   0.419E-01    0.103E-02
DAV:   2    -0.171583565992E+02   -0.22791E-04   -0.83578E-05  5860   0.161E-01    0.301E-02
DAV:   3    -0.171583359702E+02    0.20629E-04   -0.56560E-05  4500   0.162E-01    0.777E-03
DAV:   4    -0.171583347946E+02    0.11756E-05   -0.42163E-06  4180   0.317E-02
  37 F= -.17158335E+02 E0= -.17158159E+02  d E =-.488216E-04
 trial-energy change:   -0.000049  1 .order   -0.000027   -0.000032   -0.000023
 step:  60.4506(harm= 60.4506)  dis= 0.00000  next Energy=   -17.158346 (dE=-0.602E-04)
 bond charge predicted
       N       E                     dE             d eps       ncg     rms          rms(c)
DAV:   1    -0.171584658891E+02   -0.12992E-03   -0.72881E-02  4400   0.118E+00    0.276E-02
DAV:   2    -0.171586451867E+02   -0.17930E-03   -0.65839E-04  5880   0.447E-01    0.800E-02
DAV:   3    -0.171584810183E+02    0.16417E-03   -0.43861E-04  5720   0.447E-01    0.190E-02
DAV:   4    -0.171584739161E+02    0.71022E-05   -0.33469E-05  5020   0.104E-01
  38 F= -.17158474E+02 E0= -.17158321E+02  d E =-.187943E-03
 curvature: -64.20 expect dE=-0.389E-03 dE for cont linesearch -0.149E-05
 trial: gam= 2.95621 g(F)=  0.606E-05 g(S)=  0.000E+00 ort =-0.313E-06 (trialstep = 0.255E+01)
 search vector abs. value=  0.412E-04
 bond charge predicted
       N       E                     dE             d eps       ncg     rms          rms(c)
DAV:   1    -0.171584903801E+02   -0.93618E-05   -0.17688E-03  4880   0.206E-01    0.683E-03
DAV:   2    -0.171585079039E+02   -0.17524E-04   -0.60345E-05  5840   0.160E-01    0.250E-02
DAV:   3    -0.171584917760E+02    0.16128E-04   -0.45049E-05  4620   0.145E-01    0.748E-03
DAV:   4    -0.171584908530E+02    0.92305E-06   -0.27995E-06  3400   0.528E-02
  39 F= -.17158491E+02 E0= -.17158341E+02  d E =-.169369E-04
 ZBRENT: can't locate minimum, use default step
 trial-energy change:   -0.000017  1 .order   -0.000012   -0.000013   -0.000010
 step:  10.1836(harm= 11.7434)  dis= 0.00006  next Energy=   -17.158504 (dE=-0.301E-04)
 bond charge predicted
       N       E                     dE             d eps       ncg     rms          rms(c)
DAV:   1    -0.171585408073E+02   -0.49031E-04   -0.15964E-02  4400   0.517E-01    0.141E-02
DAV:   2    -0.171585476868E+02   -0.68794E-05   -0.83938E-05  5580   0.816E-02
  40 F= -.17158548E+02 E0= -.17158411E+02  d E =-.737707E-04
 curvature: -45.73 expect dE=-0.163E-03 dE for cont linesearch -0.286E-05
 ZBRENT: increasing intervall
 opt :  25.4589  next Energy=   -17.158535 (dE=-0.614E-04)
 bond charge predicted
       N       E                     dE             d eps       ncg     rms          rms(c)
DAV:   1    -0.171586446658E+02   -0.10386E-03   -0.63797E-02  4400   0.105E+00    0.404E-02
DAV:   2    -0.171594933624E+02   -0.84870E-03   -0.31157E-03  5540   0.118E+00    0.142E-01
DAV:   3    -0.171586504438E+02    0.84292E-03   -0.21675E-03  6040   0.103E+00    0.222E-02
DAV:   4    -0.171586602055E+02   -0.97617E-05   -0.11424E-04  6680   0.229E-01    0.287E-02
DAV:   5    -0.171586416838E+02    0.18522E-04   -0.36977E-05  4680   0.171E-01    0.810E-03
DAV:   6    -0.171586401275E+02    0.15563E-05   -0.82276E-06  4320   0.486E-02
  41 F= -.17158640E+02 E0= -.17158510E+02  d E =-.166211E-03
 curvature: 197.42 expect dE= 0.743E-03 dE for cont linesearch  0.492E-04
 ZBRENT: bracketing found
 ZBRENT: interpolating
 opt :  15.2841  next Energy=   -17.158552 (dE=-0.779E-04)
 bond charge predicted
       N       E                     dE             d eps       ncg     rms          rms(c)
DAV:   1    -0.171585644610E+02    0.77223E-04   -0.28387E-02  4400   0.686E-01    0.180E-02
DAV:   2    -0.171585955821E+02   -0.31121E-04   -0.18067E-04  5700   0.195E-01    0.348E-02
DAV:   3    -0.171585722381E+02    0.23344E-04   -0.95396E-05  4640   0.211E-01    0.145E-02
DAV:   4    -0.171585667843E+02    0.54539E-05   -0.10981E-05  3440   0.794E-02
  42 F= -.17158567E+02 E0= -.17158434E+02  d E =-.928682E-04
 curvature: -16.43 expect dE=-0.494E-04 dE for cont linesearch -0.630E-07
 trial: gam=-0.16502 g(F)=  0.300E-05 g(S)=  0.000E+00 ort = 0.397E-06 (trialstep = 0.509E+01)
 search vector abs. value=  0.399E-05
 bond charge predicted
       N       E                     dE             d eps       ncg     rms          rms(c)
DAV:   1    -0.171585769599E+02   -0.47217E-05   -0.32479E-03  4820   0.264E-01    0.615E-03
DAV:   2    -0.171586405698E+02   -0.63610E-04   -0.16800E-04  4280   0.271E-01    0.479E-02
DAV:   3    -0.171585776775E+02    0.62892E-04   -0.12488E-04  4540   0.244E-01    0.420E-03
DAV:   4    -0.171585765169E+02    0.11606E-05   -0.28974E-06  4200   0.350E-02
  43 F= -.17158577E+02 E0= -.17158441E+02  d E =-.973267E-05
 ZBRENT: can't locate minimum, use default step
 trial-energy change:   -0.000010  1 .order   -0.000013   -0.000015   -0.000011
 step:  20.3741(harm= 21.1374)  dis= 0.00281  next Energy=   -17.158598 (dE=-0.311E-04)
 bond charge predicted
       N       E                     dE             d eps       ncg     rms          rms(c)
DAV:   1    -0.171585722593E+02    0.54182E-05   -0.29125E-02  4400   0.755E-01    0.154E-02
DAV:   2    -0.171587897333E+02   -0.21747E-03   -0.62125E-04  6460   0.502E-01    0.844E-02
DAV:   3    -0.171585746864E+02    0.21505E-03   -0.44236E-04  5400   0.461E-01    0.893E-03
DAV:   4    -0.171585713782E+02    0.33082E-05   -0.13082E-05  4200   0.767E-02
  44 F= -.17158571E+02 E0= -.17158430E+02  d E =-.459391E-05
 curvature: -14.33 expect dE=-0.134E-05 dE for cont linesearch -0.115E-05
 trial: gam= 0.00000 g(F)=  0.933E-07 g(S)=  0.000E+00 ort =-0.566E-06 (trialstep = 0.815E+01)
 search vector abs. value=  0.934E-07
 reached required accuracy - stopping structural energy minimisation
