 running on   40 total cores
 distrk:  each k-point on   40 cores,    1 groups
 distr:  one band on    1 cores,   40 groups
 using from now: INCAR     
 vasp.5.4.1 05Feb16 (build Sep 02 2018 21:45:25) complex                        
  
 POSCAR found type information on POSCAR  N 
 POSCAR found :  1 types and       2 ions
 scaLAPACK will be used

 ----------------------------------------------------------------------------- 
|                                                                             |
|           W    W    AA    RRRRR   N    N  II  N    N   GGGG   !!!           |
|           W    W   A  A   R    R  NN   N  II  NN   N  G    G  !!!           |
|           W    W  A    A  R    R  N N  N  II  N N  N  G       !!!           |
|           W WW W  AAAAAA  RRRRR   N  N N  II  N  N N  G  GGG   !            |
|           WW  WW  A    A  R   R   N   NN  II  N   NN  G    G                |
|           W    W  A    A  R    R  N    N  II  N    N   GGGG   !!!           |
|                                                                             |
|      For optimal performance we recommend to set                            |
|        NCORE= 4 - approx SQRT( number of cores)                             |
|      NCORE specifies how many cores store one orbital (NPAR=cpu/NCORE).     |
|      This setting can  greatly improve the performance of VASP for DFT.     |
|      The default, NPAR=number of cores might be grossly inefficient         |
|      on modern multi-core architectures or massively parallel machines.     |
|      Do your own testing !!!!                                               |
|      Unfortunately you need to use the default for GW and RPA calculations. |
|      (for HF NCORE is supported but not extensively tested yet)             |
|                                                                             |
 ----------------------------------------------------------------------------- 

 LDA part: xc-table for Ceperly-Alder, standard interpolation
 POSCAR, INCAR and KPOINTS ok, starting setup
 WARNING: small aliasing (wrap around) errors must be expected
 FFT: planning ...
 WAVECAR not read
 entering main loop
       N       E                     dE             d eps       ncg     rms          rms(c)
DAV:   1     0.502229581098E+02    0.50223E+02   -0.16712E+03   240   0.859E+01
DAV:   2    -0.116810602614E+02   -0.61904E+02   -0.61904E+02   240   0.331E+01
DAV:   3    -0.171834175545E+02   -0.55024E+01   -0.55024E+01   280   0.105E+01
DAV:   4    -0.171893127178E+02   -0.58952E-02   -0.58952E-02   160   0.377E-01
DAV:   5    -0.171893470521E+02   -0.34334E-04   -0.34334E-04   240   0.284E-02    0.740E+00
DAV:   6    -0.165865159332E+02    0.60283E+00   -0.21568E+00   160   0.252E+00    0.326E+00
DAV:   7    -0.165127408976E+02    0.73775E-01   -0.67819E-01   160   0.144E+00    0.124E+00
DAV:   8    -0.165771401093E+02   -0.64399E-01   -0.43969E-02   160   0.469E-01    0.515E-01
DAV:   9    -0.166124003987E+02   -0.35260E-01   -0.89856E-03   160   0.292E-01    0.179E-01
DAV:  10    -0.166290354224E+02   -0.16635E-01   -0.24423E-03   160   0.171E-01    0.524E-02
DAV:  11    -0.166396665510E+02   -0.10631E-01   -0.41887E-04   160   0.559E-02    0.312E-02
DAV:  12    -0.166500791900E+02   -0.10413E-01   -0.32423E-04   160   0.407E-02    0.194E-02
DAV:  13    -0.166628774704E+02   -0.12798E-01   -0.91244E-04   160   0.529E-02    0.965E-03
DAV:  14    -0.166663327315E+02   -0.34553E-02   -0.14047E-04   160   0.305E-02    0.706E-03
DAV:  15    -0.166691098215E+02   -0.27771E-02   -0.11476E-04   160   0.267E-02    0.356E-03
DAV:  16    -0.166705808547E+02   -0.14710E-02   -0.50152E-05   160   0.186E-02    0.211E-03
DAV:  17    -0.166710745366E+02   -0.49368E-03   -0.15745E-05   240   0.115E-02    0.145E-03
DAV:  18    -0.166712307476E+02   -0.15621E-03   -0.14549E-05   240   0.865E-03    0.728E-04
DAV:  19    -0.166713375652E+02   -0.10682E-03   -0.25437E-06   160   0.478E-03    0.527E-04
DAV:  20    -0.166714214594E+02   -0.83894E-04   -0.86283E-07   160   0.243E-03    0.369E-04
DAV:  21    -0.166715257029E+02   -0.10424E-03   -0.33257E-07   160   0.130E-03    0.218E-04
DAV:  22    -0.166715740718E+02   -0.48369E-04   -0.95890E-08   240   0.789E-04    0.134E-04
DAV:  23    -0.166715769629E+02   -0.28911E-05   -0.68265E-08   240   0.557E-04    0.862E-05
DAV:  24    -0.166715755724E+02    0.13905E-05   -0.30310E-08   240   0.416E-04    0.562E-05
DAV:  25    -0.166715746745E+02    0.89784E-06   -0.13969E-08   160   0.337E-04
   1 F= -.16671575E+02 E0= -.16671575E+02  d E =-.605275E-36  mag=     0.0000
 Finite differences POTIM= 0.02000 DOF=   6
 bond charge predicted
       N       E                     dE             d eps       ncg     rms          rms(c)
DAV:   1    -0.166442655405E+02    0.27310E-01   -0.17566E+00   160   0.304E+00    0.456E-01
DAV:   2    -0.166421506584E+02    0.21149E-02   -0.23316E-02   160   0.332E-01    0.249E-01
DAV:   3    -0.166411969131E+02    0.95375E-03   -0.60779E-03   240   0.148E-01    0.613E-02
DAV:   4    -0.166411975856E+02   -0.67257E-06   -0.22210E-04   160   0.291E-02    0.301E-02
DAV:   5    -0.166412072400E+02   -0.96544E-05   -0.22534E-05   200   0.135E-02    0.314E-03
DAV:   6    -0.166412117422E+02   -0.45022E-05   -0.10246E-06   160   0.241E-03    0.180E-03
DAV:   7    -0.166412198892E+02   -0.81470E-05   -0.14678E-06   160   0.240E-03    0.691E-04
DAV:   8    -0.166412229909E+02   -0.31017E-05   -0.22361E-07   160   0.116E-03    0.595E-04
DAV:   9    -0.166412267676E+02   -0.37767E-05   -0.59382E-07   160   0.149E-03    0.233E-04
DAV:  10    -0.166412263532E+02    0.41440E-06   -0.16686E-07   160   0.106E-03
   2 F= -.16641226E+02 E0= -.16641226E+02  d E =-.129338E-35  mag=     0.0000
 Finite differences progress:
  Degree of freedom:   1/  6
  Displacement:        1/  2
  Total:               1/ 12
 bond charge predicted
       N       E                     dE             d eps       ncg     rms          rms(c)
DAV:   1    -0.166552950847E+02   -0.14068E-01   -0.68705E+00   160   0.597E+00    0.915E-01
DAV:   2    -0.166453600002E+02    0.99351E-02   -0.84583E-02   240   0.613E-01    0.475E-01
DAV:   3    -0.166420565555E+02    0.33034E-02   -0.17767E-02   240   0.250E-01    0.123E-01
DAV:   4    -0.166420544260E+02    0.21295E-05   -0.46749E-04   160   0.426E-02    0.486E-02
DAV:   5    -0.166420818286E+02   -0.27403E-04   -0.58905E-05   160   0.202E-02    0.499E-03
DAV:   6    -0.166421284028E+02   -0.46574E-04   -0.59501E-06   160   0.593E-03    0.204E-03
DAV:   7    -0.166421722120E+02   -0.43809E-04   -0.38168E-06   160   0.457E-03    0.137E-03
DAV:   8    -0.166421983643E+02   -0.26152E-04   -0.11038E-06   160   0.270E-03    0.107E-03
DAV:   9    -0.166422603463E+02   -0.61982E-04   -0.28325E-06   160   0.319E-03    0.465E-04
DAV:  10    -0.166422767563E+02   -0.16410E-04   -0.51903E-07   240   0.206E-03    0.360E-04
DAV:  11    -0.166423096590E+02   -0.32903E-04   -0.44738E-07   160   0.142E-03    0.195E-04
DAV:  12    -0.166423137730E+02   -0.41141E-05   -0.11053E-07   160   0.900E-04    0.115E-04
DAV:  13    -0.166423123913E+02    0.13817E-05   -0.82858E-08   160   0.625E-04    0.127E-04
DAV:  14    -0.166423108170E+02    0.15743E-05   -0.25895E-08   160   0.374E-04    0.369E-05
DAV:  15    -0.166423099572E+02    0.85981E-06   -0.50530E-09   160   0.210E-04
   3 F= -.16642310E+02 E0= -.16642310E+02  d E =-.892904E-37  mag=    -0.0000
 Finite differences progress:
  Degree of freedom:   1/  6
  Displacement:        2/  2
  Total:               2/ 12
 bond charge predicted
       N       E                     dE             d eps       ncg     rms          rms(c)
DAV:   1    -0.166740528351E+02   -0.31742E-01   -0.32721E+00   160   0.409E+00    0.500E-01
DAV:   2    -0.166726360933E+02    0.14167E-02   -0.29240E-02   240   0.400E-01    0.285E-01
DAV:   3    -0.166715877407E+02    0.10484E-02   -0.72671E-03   240   0.161E-01    0.656E-02
DAV:   4    -0.166715395571E+02    0.48184E-04   -0.35765E-04   160   0.360E-02    0.322E-02
DAV:   5    -0.166715476099E+02   -0.80528E-05   -0.42814E-05   240   0.166E-02    0.363E-03
DAV:   6    -0.166715570501E+02   -0.94402E-05   -0.26015E-06   160   0.347E-03    0.156E-03
DAV:   7    -0.166715652458E+02   -0.81957E-05   -0.75709E-07   160   0.170E-03    0.648E-04
DAV:   8    -0.166715716733E+02   -0.64274E-05   -0.33099E-07   160   0.109E-03    0.439E-04
DAV:   9    -0.166715798144E+02   -0.81411E-05   -0.73207E-07   160   0.145E-03    0.258E-04
DAV:  10    -0.166715816309E+02   -0.18165E-05   -0.14143E-07   160   0.893E-04    0.181E-04
DAV:  11    -0.166715804760E+02    0.11549E-05   -0.17784E-07   160   0.831E-04    0.978E-05
DAV:  12    -0.166715784528E+02    0.20231E-05   -0.48050E-08   160   0.593E-04    0.735E-05
DAV:  13    -0.166715778593E+02    0.59350E-06   -0.13804E-08   160   0.337E-04
   4 F= -.16671578E+02 E0= -.16671578E+02  d E =-.748524E-36  mag=    -0.0000
 Finite differences progress:
  Degree of freedom:   2/  6
  Displacement:        1/  2
  Total:               3/ 12
 bond charge predicted
       N       E                     dE             d eps       ncg     rms          rms(c)
DAV:   1    -0.166717004148E+02   -0.12196E-03   -0.61353E+00   160   0.525E+00    0.537E-01
DAV:   2    -0.166724240376E+02   -0.72362E-03   -0.30782E-02   240   0.424E-01    0.301E-01
DAV:   3    -0.166714921720E+02    0.93187E-03   -0.36883E-03   160   0.116E-01    0.378E-02
DAV:   4    -0.166715084908E+02   -0.16319E-04   -0.30062E-04   160   0.387E-02    0.249E-02
DAV:   5    -0.166715164273E+02   -0.79365E-05   -0.59330E-05   160   0.144E-02    0.550E-03
DAV:   6    -0.166715262155E+02   -0.97882E-05   -0.81334E-06   160   0.599E-03    0.193E-03
DAV:   7    -0.166715429064E+02   -0.16691E-04   -0.21618E-06   160   0.280E-03    0.559E-04
DAV:   8    -0.166715527200E+02   -0.98136E-05   -0.81543E-07   160   0.209E-03    0.683E-04
DAV:   9    -0.166715590992E+02   -0.63792E-05   -0.16438E-07   160   0.118E-03    0.375E-04
DAV:  10    -0.166715757401E+02   -0.16641E-04   -0.73042E-07   160   0.172E-03    0.412E-04
DAV:  11    -0.166715774468E+02   -0.17067E-05   -0.11132E-07   160   0.104E-03    0.337E-04
DAV:  12    -0.166715787311E+02   -0.12842E-05   -0.38527E-08   160   0.516E-04    0.619E-05
DAV:  13    -0.166715789351E+02   -0.20407E-06   -0.10116E-08   160   0.315E-04
   5 F= -.16671579E+02 E0= -.16671579E+02  d E =-.439700E-36  mag=     0.0000
 Finite differences progress:
  Degree of freedom:   2/  6
  Displacement:        2/  2
  Total:               4/ 12
 bond charge predicted
       N       E                     dE             d eps       ncg     rms          rms(c)
DAV:   1    -0.166716392346E+02   -0.60504E-04   -0.30711E+00   160   0.377E+00    0.360E-01
DAV:   2    -0.166721143580E+02   -0.47512E-03   -0.15309E-02   240   0.298E-01    0.210E-01
DAV:   3    -0.166715410674E+02    0.57329E-03   -0.18952E-03   160   0.855E-02    0.242E-02
DAV:   4    -0.166715438373E+02   -0.27699E-05   -0.16546E-04   160   0.282E-02    0.150E-02
DAV:   5    -0.166715458538E+02   -0.20165E-05   -0.27346E-05   160   0.964E-03    0.277E-03
DAV:   6    -0.166715496325E+02   -0.37787E-05   -0.27278E-06   160   0.354E-03    0.119E-03
DAV:   7    -0.166715605603E+02   -0.10928E-04   -0.17352E-06   160   0.219E-03    0.379E-04
DAV:   8    -0.166715647143E+02   -0.41541E-05   -0.18457E-07   160   0.107E-03    0.367E-04
DAV:   9    -0.166715708609E+02   -0.61465E-05   -0.15748E-07   160   0.930E-04    0.186E-04
DAV:  10    -0.166715773412E+02   -0.64804E-05   -0.26029E-07   160   0.981E-04    0.204E-04
DAV:  11    -0.166715781852E+02   -0.84394E-06   -0.22763E-08   160   0.469E-04
   6 F= -.16671578E+02 E0= -.16671578E+02  d E =-.856028E-37  mag=     0.0000
 Finite differences progress:
  Degree of freedom:   3/  6
  Displacement:        1/  2
  Total:               5/ 12
 bond charge predicted
       N       E                     dE             d eps       ncg     rms          rms(c)
DAV:   1    -0.166717114086E+02   -0.13407E-03   -0.61354E+00   160   0.525E+00    0.537E-01
DAV:   2    -0.166724249377E+02   -0.71353E-03   -0.30675E-02   240   0.424E-01    0.301E-01
DAV:   3    -0.166714936609E+02    0.93128E-03   -0.36858E-03   160   0.116E-01    0.378E-02
DAV:   4    -0.166715100171E+02   -0.16356E-04   -0.30173E-04   160   0.388E-02    0.249E-02
DAV:   5    -0.166715175526E+02   -0.75355E-05   -0.58810E-05   160   0.144E-02    0.551E-03
DAV:   6    -0.166715272509E+02   -0.96983E-05   -0.81712E-06   160   0.598E-03    0.192E-03
DAV:   7    -0.166715471012E+02   -0.19850E-04   -0.31517E-06   160   0.304E-03    0.627E-04
DAV:   8    -0.166715534630E+02   -0.63618E-05   -0.36071E-07   160   0.162E-03    0.671E-04
DAV:   9    -0.166715613849E+02   -0.79219E-05   -0.21177E-07   160   0.124E-03    0.307E-04
DAV:  10    -0.166715761780E+02   -0.14793E-04   -0.63242E-07   160   0.148E-03    0.434E-04
DAV:  11    -0.166715777335E+02   -0.15555E-05   -0.45533E-08   160   0.648E-04    0.292E-04
DAV:  12    -0.166715788044E+02   -0.10708E-05   -0.35029E-08   160   0.457E-04    0.889E-05
DAV:  13    -0.166715789354E+02   -0.13104E-06   -0.60118E-09   160   0.233E-04
   7 F= -.16671579E+02 E0= -.16671579E+02  d E =-.264948E-36  mag=     0.0000
 Finite differences progress:
  Degree of freedom:   3/  6
  Displacement:        2/  2
  Total:               6/ 12
 bond charge predicted
       N       E                     dE             d eps       ncg     rms          rms(c)
DAV:   1    -0.166447534413E+02    0.26825E-01   -0.32410E+00   160   0.405E+00    0.513E-01
DAV:   2    -0.166433458838E+02    0.14076E-02   -0.34675E-02   240   0.406E-01    0.272E-01
DAV:   3    -0.166422592319E+02    0.10867E-02   -0.46957E-03   160   0.132E-01    0.724E-02
DAV:   4    -0.166422447122E+02    0.14520E-04   -0.18667E-04   160   0.295E-02    0.220E-02
DAV:   5    -0.166422481355E+02   -0.34233E-05   -0.33398E-05   160   0.123E-02    0.297E-03
DAV:   6    -0.166422702077E+02   -0.22072E-04   -0.28054E-06   160   0.361E-03    0.109E-03
DAV:   7    -0.166422913641E+02   -0.21156E-04   -0.95510E-07   160   0.166E-03    0.771E-04
DAV:   8    -0.166423153101E+02   -0.23946E-04   -0.60899E-07   160   0.133E-03    0.432E-04
DAV:   9    -0.166423318625E+02   -0.16552E-04   -0.26272E-07   160   0.103E-03    0.219E-04
DAV:  10    -0.166423482312E+02   -0.16369E-04   -0.24834E-07   160   0.101E-03    0.189E-04
DAV:  11    -0.166423515285E+02   -0.32973E-05   -0.96111E-08   160   0.787E-04    0.116E-04
DAV:  12    -0.166423515742E+02   -0.45760E-07   -0.22565E-08   160   0.420E-04
   8 F= -.16642352E+02 E0= -.16642352E+02  d E =-.116322E-35  mag=    -0.0000
 Finite differences progress:
  Degree of freedom:   4/  6
  Displacement:        1/  2
  Total:               7/ 12
 bond charge predicted
       N       E                     dE             d eps       ncg     rms          rms(c)
DAV:   1    -0.166522852408E+02   -0.99337E-02   -0.70085E+00   160   0.608E+00    0.891E-01
DAV:   2    -0.166448430306E+02    0.74422E-02   -0.91332E-02   240   0.670E-01    0.491E-01
DAV:   3    -0.166410726019E+02    0.37704E-02   -0.23096E-02   240   0.286E-01    0.120E-01
DAV:   4    -0.166410334029E+02    0.39199E-04   -0.83002E-04   240   0.552E-02    0.610E-02
DAV:   5    -0.166410714223E+02   -0.38019E-04   -0.80292E-05   240   0.259E-02    0.557E-03
DAV:   6    -0.166411097228E+02   -0.38301E-04   -0.61635E-06   240   0.535E-03    0.181E-03
DAV:   7    -0.166411394850E+02   -0.29762E-04   -0.27820E-06   240   0.346E-03    0.135E-03
DAV:   8    -0.166411645485E+02   -0.25063E-04   -0.21226E-06   160   0.390E-03    0.790E-04
DAV:   9    -0.166411846302E+02   -0.20082E-04   -0.24765E-06   160   0.401E-03    0.409E-04
DAV:  10    -0.166411911167E+02   -0.64865E-05   -0.71795E-07   160   0.232E-03    0.323E-04
DAV:  11    -0.166411925890E+02   -0.14722E-05   -0.53073E-07   160   0.165E-03    0.152E-04
DAV:  12    -0.166411902483E+02    0.23406E-05   -0.10514E-07   160   0.802E-04    0.113E-04
DAV:  13    -0.166411879814E+02    0.22670E-05   -0.80878E-08   160   0.671E-04    0.843E-05
DAV:  14    -0.166411881345E+02   -0.15312E-06   -0.24199E-08   160   0.383E-04
   9 F= -.16641188E+02 E0= -.16641188E+02  d E =-.234570E-41  mag=    -0.0000
 Finite differences progress:
  Degree of freedom:   4/  6
  Displacement:        2/  2
  Total:               8/ 12
 bond charge predicted
       N       E                     dE             d eps       ncg     rms          rms(c)
DAV:   1    -0.166749750361E+02   -0.33787E-01   -0.32703E+00   160   0.407E+00    0.534E-01
DAV:   2    -0.166726483793E+02    0.23267E-02   -0.31254E-02   240   0.395E-01    0.290E-01
DAV:   3    -0.166714513324E+02    0.11970E-02   -0.61936E-03   240   0.149E-01    0.675E-02
DAV:   4    -0.166714549703E+02   -0.36379E-05   -0.24730E-04   240   0.309E-02    0.278E-02
DAV:   5    -0.166714748821E+02   -0.19912E-04   -0.30441E-05   160   0.142E-02    0.348E-03
DAV:   6    -0.166714980460E+02   -0.23164E-04   -0.35569E-06   160   0.392E-03    0.110E-03
DAV:   7    -0.166715177343E+02   -0.19688E-04   -0.67664E-07   160   0.157E-03    0.580E-04
DAV:   8    -0.166715466763E+02   -0.28942E-04   -0.99578E-07   160   0.195E-03    0.415E-04
DAV:   9    -0.166715637970E+02   -0.17121E-04   -0.41869E-07   160   0.161E-03    0.266E-04
DAV:  10    -0.166715769853E+02   -0.13188E-04   -0.24063E-07   160   0.118E-03    0.150E-04
DAV:  11    -0.166715832226E+02   -0.62372E-05   -0.13622E-07   160   0.916E-04    0.124E-04
DAV:  12    -0.166715840660E+02   -0.84341E-06   -0.17349E-08   160   0.410E-04
  10 F= -.16671584E+02 E0= -.16671584E+02  d E =-.385821E-35  mag=    -0.0000
 Finite differences progress:
  Degree of freedom:   5/  6
  Displacement:        1/  2
  Total:               9/ 12
 bond charge predicted
       N       E                     dE             d eps       ncg     rms          rms(c)
DAV:   1    -0.166716970206E+02   -0.11380E-03   -0.61352E+00   160   0.525E+00    0.537E-01
DAV:   2    -0.166724372998E+02   -0.74028E-03   -0.30802E-02   240   0.425E-01    0.301E-01
DAV:   3    -0.166714976886E+02    0.93961E-03   -0.36910E-03   160   0.116E-01    0.376E-02
DAV:   4    -0.166715136926E+02   -0.16004E-04   -0.30424E-04   160   0.387E-02    0.250E-02
DAV:   5    -0.166715206349E+02   -0.69423E-05   -0.58377E-05   160   0.143E-02    0.557E-03
DAV:   6    -0.166715303631E+02   -0.97282E-05   -0.82871E-06   160   0.603E-03    0.195E-03
DAV:   7    -0.166715488808E+02   -0.18518E-04   -0.29501E-06   160   0.326E-03    0.607E-04
DAV:   8    -0.166715564861E+02   -0.76054E-05   -0.62673E-07   160   0.226E-03    0.701E-04
DAV:   9    -0.166715626475E+02   -0.61613E-05   -0.14907E-07   160   0.114E-03    0.400E-04
DAV:  10    -0.166715801563E+02   -0.17509E-04   -0.73907E-07   160   0.152E-03    0.436E-04
DAV:  11    -0.166715817184E+02   -0.15620E-05   -0.75305E-08   160   0.915E-04    0.320E-04
DAV:  12    -0.166715828359E+02   -0.11175E-05   -0.47165E-08   160   0.652E-04    0.735E-05
DAV:  13    -0.166715829571E+02   -0.12121E-06   -0.25120E-08   160   0.597E-04
  11 F= -.16671583E+02 E0= -.16671583E+02  d E =-.757322E-36  mag=     0.0000
 Finite differences progress:
  Degree of freedom:   5/  6
  Displacement:        2/  2
  Total:              10/ 12
 bond charge predicted
       N       E                     dE             d eps       ncg     rms          rms(c)
DAV:   1    -0.166716449718E+02   -0.62136E-04   -0.30711E+00   160   0.377E+00    0.360E-01
DAV:   2    -0.166721273277E+02   -0.48236E-03   -0.15286E-02   240   0.301E-01    0.210E-01
DAV:   3    -0.166715439880E+02    0.58334E-03   -0.18934E-03   160   0.856E-02    0.241E-02
DAV:   4    -0.166715472487E+02   -0.32606E-05   -0.16572E-04   160   0.282E-02    0.149E-02
DAV:   5    -0.166715492376E+02   -0.19889E-05   -0.27147E-05   160   0.960E-03    0.276E-03
DAV:   6    -0.166715531598E+02   -0.39222E-05   -0.27241E-06   160   0.356E-03    0.119E-03
DAV:   7    -0.166715631399E+02   -0.99801E-05   -0.16393E-06   160   0.224E-03    0.402E-04
DAV:   8    -0.166715678974E+02   -0.47575E-05   -0.25400E-07   160   0.133E-03    0.368E-04
DAV:   9    -0.166715730944E+02   -0.51971E-05   -0.11726E-07   160   0.818E-04    0.226E-04
DAV:  10    -0.166715812195E+02   -0.81250E-05   -0.30824E-07   160   0.958E-04    0.190E-04
DAV:  11    -0.166715821057E+02   -0.88622E-06   -0.31030E-08   160   0.539E-04
  12 F= -.16671582E+02 E0= -.16671582E+02  d E =-.217274E-36  mag=     0.0000
 Finite differences progress:
  Degree of freedom:   6/  6
  Displacement:        1/  2
  Total:              11/ 12
 bond charge predicted
       N       E                     dE             d eps       ncg     rms          rms(c)
DAV:   1    -0.166716952497E+02   -0.11403E-03   -0.61352E+00   160   0.525E+00    0.537E-01
DAV:   2    -0.166724349066E+02   -0.73966E-03   -0.30873E-02   240   0.429E-01    0.301E-01
DAV:   3    -0.166714988477E+02    0.93606E-03   -0.36719E-03   160   0.116E-01    0.379E-02
DAV:   4    -0.166715140607E+02   -0.15213E-04   -0.30100E-04   160   0.389E-02    0.249E-02
DAV:   5    -0.166715211255E+02   -0.70648E-05   -0.59079E-05   160   0.144E-02    0.548E-03
DAV:   6    -0.166715307532E+02   -0.96277E-05   -0.80712E-06   160   0.593E-03    0.189E-03
DAV:   7    -0.166715500082E+02   -0.19255E-04   -0.32104E-06   160   0.300E-03    0.650E-04
DAV:   8    -0.166715568116E+02   -0.68034E-05   -0.31155E-07   160   0.148E-03    0.663E-04
DAV:   9    -0.166715637785E+02   -0.69669E-05   -0.13119E-07   160   0.915E-04    0.342E-04
DAV:  10    -0.166715803181E+02   -0.16540E-04   -0.62789E-07   160   0.119E-03    0.430E-04
DAV:  11    -0.166715820568E+02   -0.17387E-05   -0.41562E-08   160   0.615E-04    0.229E-04
DAV:  12    -0.166715828809E+02   -0.82410E-06   -0.41431E-08   160   0.649E-04
  13 F= -.16671583E+02 E0= -.16671583E+02  d E =-.121876E-35  mag=     0.0000
 Finite differences progress:
  Degree of freedom:   6/  6
  Displacement:        2/  2
  Total:              12/ 12
 Finite differences POTIM=  2.000000000000000E-002
 writing wavefunctions
