 running on   20 total cores
 distrk:  each k-point on   20 cores,    1 groups
 distr:  one band on    1 cores,   20 groups
 using from now: INCAR     
 vasp.5.4.1 05Feb16 (build Sep 02 2018 21:45:25) complex                        
  
 POSCAR found type information on POSCAR  Cu H 
 POSCAR found :  2 types and      17 ions
 scaLAPACK will be used

 ----------------------------------------------------------------------------- 
|                                                                             |
|           W    W    AA    RRRRR   N    N  II  N    N   GGGG   !!!           |
|           W    W   A  A   R    R  NN   N  II  NN   N  G    G  !!!           |
|           W    W  A    A  R    R  N N  N  II  N N  N  G       !!!           |
|           W WW W  AAAAAA  RRRRR   N  N N  II  N  N N  G  GGG   !            |
|           WW  WW  A    A  R   R   N   NN  II  N   NN  G    G                |
|           W    W  A    A  R    R  N    N  II  N    N   GGGG   !!!           |
|                                                                             |
|      For optimal performance we recommend to set                            |
|        NCORE= 4 - approx SQRT( number of cores)                             |
|      NCORE specifies how many cores store one orbital (NPAR=cpu/NCORE).     |
|      This setting can  greatly improve the performance of VASP for DFT.     |
|      The default, NPAR=number of cores might be grossly inefficient         |
|      on modern multi-core architectures or massively parallel machines.     |
|      Do your own testing !!!!                                               |
|      Unfortunately you need to use the default for GW and RPA calculations. |
|      (for HF NCORE is supported but not extensively tested yet)             |
|                                                                             |
 ----------------------------------------------------------------------------- 

 LDA part: xc-table for Ceperly-Alder, standard interpolation
 POSCAR, INCAR and KPOINTS ok, starting setup
 WARNING: small aliasing (wrap around) errors must be expected
 FFT: planning ...
 WAVECAR not read
 entering main loop
       N       E                     dE             d eps       ncg     rms          rms(c)
DAV:   1     0.118434428204E+04    0.11843E+04   -0.76810E+04  3600   0.152E+03
DAV:   2     0.193248146624E+02   -0.11650E+04   -0.11158E+04  3620   0.337E+02
DAV:   3    -0.688842190958E+02   -0.88209E+02   -0.86982E+02  4180   0.125E+02
DAV:   4    -0.703305901061E+02   -0.14464E+01   -0.14450E+01  3940   0.182E+01
DAV:   5    -0.703413866415E+02   -0.10797E-01   -0.10796E-01  4440   0.108E+00    0.258E+01
DAV:   6    -0.640379150010E+02    0.63035E+01   -0.12423E+02  4180   0.817E+01    0.131E+01
DAV:   7    -0.583660651323E+02    0.56718E+01   -0.24501E+01  4420   0.432E+01    0.275E+00
DAV:   8    -0.584991576716E+02   -0.13309E+00   -0.45293E+00  4220   0.309E+01    0.295E+00
DAV:   9    -0.584539976062E+02    0.45160E-01   -0.27327E+00  4600   0.215E+01    0.266E+00
DAV:  10    -0.583451677743E+02    0.10883E+00   -0.65293E-01  4780   0.108E+01    0.185E+00
DAV:  11    -0.582909499860E+02    0.54218E-01   -0.32443E-01  4220   0.517E+00    0.548E-01
DAV:  12    -0.582841874001E+02    0.67626E-02   -0.15391E-01  4040   0.479E+00    0.208E-01
DAV:  13    -0.582819541093E+02    0.22333E-02   -0.40892E-02  4240   0.246E+00    0.200E-01
DAV:  14    -0.582829198002E+02   -0.96569E-03   -0.91398E-02  5880   0.364E+00    0.220E-01
DAV:  15    -0.582769798805E+02    0.59399E-02   -0.26253E-02  5580   0.183E+00    0.750E-02
DAV:  16    -0.582764241366E+02    0.55574E-03   -0.32266E-03  4080   0.538E-01    0.442E-02
DAV:  17    -0.582774557079E+02   -0.10316E-02   -0.71338E-03  3960   0.104E+00    0.110E-01
DAV:  18    -0.582774360753E+02    0.19633E-04   -0.84800E-03  4960   0.112E+00    0.508E-02
DAV:  19    -0.582781572924E+02   -0.72122E-03   -0.66578E-04  3780   0.217E-01    0.428E-02
DAV:  20    -0.582792929917E+02   -0.11357E-02   -0.84410E-03  5680   0.107E+00    0.585E-02
DAV:  21    -0.582794528792E+02   -0.15989E-03   -0.23828E-03  4380   0.549E-01    0.148E-02
DAV:  22    -0.582798511981E+02   -0.39832E-03   -0.16566E-04  3940   0.661E-02    0.160E-02
DAV:  23    -0.582799398854E+02   -0.88687E-04   -0.22739E-04  2920   0.187E-01    0.595E-03
DAV:  24    -0.582799432213E+02   -0.33359E-05   -0.43318E-05  3140   0.677E-02
   1 F= -.58279943E+02 E0= -.58279726E+02  d E =-.582799E+02
 curvature:   0.00 expect dE= 0.000E+00 dE for cont linesearch  0.000E+00
 trial: gam= 0.00000 g(F)=  0.527E-02 g(S)=  0.000E+00 ort = 0.000E+00 (trialstep = 0.100E+01)
 search vector abs. value=  0.527E-02
 bond charge predicted
       N       E                     dE             d eps       ncg     rms          rms(c)
DAV:   1    -0.582851467964E+02   -0.52069E-02   -0.23504E-01  3740   0.143E+00    0.299E-02
DAV:   2    -0.582852110468E+02   -0.64250E-04   -0.85628E-04  4120   0.192E-01    0.256E-02
DAV:   3    -0.582852086928E+02    0.23540E-05   -0.10675E-04  4040   0.167E-01    0.190E-02
DAV:   4    -0.582851999452E+02    0.87475E-05   -0.40030E-05  2900   0.113E-01
   2 F= -.58285200E+02 E0= -.58284983E+02  d E =-.525672E-02
 ZBRENT: can't locate minimum, use default step
 trial-energy change:   -0.005257  1 .order   -0.005108   -0.005273   -0.004943
 step:   4.0000(harm= 15.9953)  dis= 0.00901  next Energy=   -58.322115 (dE=-0.422E-01)
 bond charge predicted
       N       E                     dE             d eps       ncg     rms          rms(c)
DAV:   1    -0.582980535952E+02   -0.12845E-01   -0.21161E+00  3640   0.431E+00    0.876E-02
DAV:   2    -0.582986854618E+02   -0.63187E-03   -0.80895E-03  4160   0.659E-01    0.843E-02
DAV:   3    -0.582986789360E+02    0.65257E-05   -0.16890E-03  4160   0.639E-01    0.579E-02
DAV:   4    -0.582986430268E+02    0.35909E-04   -0.13445E-03  4300   0.584E-01    0.454E-02
DAV:   5    -0.582985688055E+02    0.74221E-04   -0.70826E-04  5460   0.426E-01    0.113E-02
DAV:   6    -0.582985675475E+02    0.12581E-05   -0.10277E-04  4440   0.957E-02    0.637E-03
DAV:   7    -0.582985685412E+02   -0.99374E-06   -0.18940E-05  2540   0.318E-02
   3 F= -.58298569E+02 E0= -.58298376E+02  d E =-.186253E-01
 curvature:  -2.88 expect dE=-0.885E-02 dE for cont linesearch -0.872E-02
 ZBRENT: increasing intervall
 opt :  10.0000  next Energy=   -58.316863 (dE=-0.369E-01)
 bond charge predicted
       N       E                     dE             d eps       ncg     rms          rms(c)
DAV:   1    -0.583147331388E+02   -0.16166E-01   -0.84757E+00  3620   0.863E+00    0.178E-01
DAV:   2    -0.583171949331E+02   -0.24618E-02   -0.31701E-02  4140   0.123E+00    0.162E-01
DAV:   3    -0.583170849162E+02    0.11002E-03   -0.39981E-03  4120   0.102E+00    0.109E-01
DAV:   4    -0.583169910058E+02    0.93910E-04   -0.32297E-03  5540   0.864E-01    0.699E-02
DAV:   5    -0.583167856001E+02    0.20541E-03   -0.32606E-03  4800   0.873E-01    0.330E-02
DAV:   6    -0.583167469410E+02    0.38659E-04   -0.40135E-04  4980   0.268E-01    0.132E-02
DAV:   7    -0.583167502307E+02   -0.32897E-05   -0.65580E-05  3920   0.622E-02
   4 F= -.58316750E+02 E0= -.58316597E+02  d E =-.368070E-01
 curvature:  -6.04 expect dE=-0.651E-02 dE for cont linesearch -0.478E-02
 ZBRENT: increasing intervall
 opt :  22.0000  next Energy=   -58.317800 (dE=-0.379E-01)
 bond charge predicted
       N       E                     dE             d eps       ncg     rms          rms(c)
DAV:   1    -0.583088863930E+02    0.78605E-02   -0.34092E+01  3620   0.174E+01    0.360E-01
DAV:   2    -0.583193803531E+02   -0.10494E-01   -0.13379E-01  4140   0.272E+00    0.353E-01
DAV:   3    -0.583187103020E+02    0.67005E-03   -0.18109E-02  4100   0.216E+00    0.212E-01
DAV:   4    -0.583187764593E+02   -0.66157E-04   -0.17120E-02  5140   0.195E+00    0.165E-01
DAV:   5    -0.583175479724E+02    0.12285E-02   -0.16357E-02  4980   0.194E+00    0.654E-02
DAV:   6    -0.583174273027E+02    0.12067E-03   -0.17472E-03  5000   0.543E-01    0.318E-02
DAV:   7    -0.583174346238E+02   -0.73211E-05   -0.28873E-04  4000   0.155E-01    0.190E-02
DAV:   8    -0.583174304422E+02    0.41816E-05   -0.55910E-05  4040   0.645E-02
   5 F= -.58317430E+02 E0= -.58317328E+02  d E =-.374872E-01
 curvature:  -1.33 expect dE=-0.284E-02 dE for cont linesearch -0.965E-03
 ZBRENT: bracketing found
 ZBRENT: interpolating
 opt :  16.1260  next Energy=   -58.323181 (dE=-0.432E-01)
 bond charge predicted
       N       E                     dE             d eps       ncg     rms          rms(c)
DAV:   1    -0.583209693317E+02   -0.35347E-02   -0.81263E+00  3640   0.846E+00    0.175E-01
DAV:   2    -0.583232418630E+02   -0.22725E-02   -0.29876E-02  4100   0.111E+00    0.148E-01
DAV:   3    -0.583231590937E+02    0.82769E-04   -0.37592E-03  4080   0.101E+00    0.109E-01
DAV:   4    -0.583229883025E+02    0.17079E-03   -0.23752E-03  5720   0.741E-01    0.481E-02
DAV:   5    -0.583229277116E+02    0.60591E-04   -0.28949E-03  5420   0.780E-01    0.434E-02
DAV:   6    -0.583228526926E+02    0.75019E-04   -0.53600E-04  4300   0.374E-01    0.141E-02
DAV:   7    -0.583228536386E+02   -0.94600E-06   -0.72531E-05  4000   0.585E-02
   6 F= -.58322854E+02 E0= -.58322729E+02  d E =-.429104E-01
 curvature:  -7.91 expect dE=-0.608E-02 dE for cont linesearch -0.414E-05
 trial: gam= 0.13591 g(F)=  0.769E-03 g(S)=  0.000E+00 ort = 0.525E-04 (trialstep = 0.403E+01)
 search vector abs. value=  0.881E-03
 bond charge predicted
       N       E                     dE             d eps       ncg     rms          rms(c)
DAV:   1    -0.583254200102E+02   -0.25673E-02   -0.62279E-01  3600   0.228E+00    0.528E-02
DAV:   2    -0.583255585248E+02   -0.13851E-03   -0.20775E-03  4120   0.288E-01    0.403E-02
DAV:   3    -0.583255745181E+02   -0.15993E-04   -0.52992E-04  4120   0.407E-01    0.406E-02
DAV:   4    -0.583255361435E+02    0.38375E-04   -0.58393E-04  4740   0.370E-01    0.212E-02
DAV:   5    -0.583255189337E+02    0.17210E-04   -0.14039E-04  3420   0.176E-01    0.878E-03
DAV:   6    -0.583255190785E+02   -0.14477E-06   -0.23242E-05  2780   0.416E-02
   7 F= -.58325519E+02 E0= -.58325387E+02  d E =-.266544E-02
 trial-energy change:   -0.002665  1 .order   -0.002697   -0.003125   -0.002269
 step:  14.6943(harm= 14.6943)  dis= 0.03499  next Energy=   -58.328557 (dE=-0.570E-02)
 bond charge predicted
       N       E                     dE             d eps       ncg     rms          rms(c)
DAV:   1    -0.583282119168E+02   -0.26930E-02   -0.43875E+00  3600   0.605E+00    0.140E-01
DAV:   2    -0.583292289839E+02   -0.10171E-02   -0.14739E-02  3940   0.852E-01    0.117E-01
DAV:   3    -0.583292030500E+02    0.25934E-04   -0.27108E-03  4100   0.898E-01    0.906E-02
DAV:   4    -0.583291327040E+02    0.70346E-04   -0.23792E-03  5800   0.757E-01    0.627E-02
DAV:   5    -0.583289832207E+02    0.14948E-03   -0.14400E-03  4440   0.582E-01    0.223E-02
DAV:   6    -0.583289778772E+02    0.53435E-05   -0.13130E-04  4400   0.120E-01    0.815E-03
DAV:   7    -0.583289785618E+02   -0.68457E-06   -0.21297E-05  3040   0.328E-02
   8 F= -.58328979E+02 E0= -.58328825E+02  d E =-.612492E-02
 curvature:  -8.34 expect dE=-0.307E-03 dE for cont linesearch -0.440E-05
 trial: gam= 0.02001 g(F)=  0.368E-04 g(S)=  0.000E+00 ort = 0.216E-04 (trialstep = 0.616E+01)
 search vector abs. value=  0.380E-04
 bond charge predicted
       N       E                     dE             d eps       ncg     rms          rms(c)
DAV:   1    -0.583293461039E+02   -0.36823E-03   -0.42533E-02  3600   0.614E-01    0.142E-02
DAV:   2    -0.583293619529E+02   -0.15849E-04   -0.20829E-04  4120   0.859E-02    0.114E-02
DAV:   3    -0.583293613380E+02    0.61495E-06   -0.20766E-05  2920   0.729E-02
   9 F= -.58329361E+02 E0= -.58329215E+02  d E =-.382776E-03
 trial-energy change:   -0.000383  1 .order   -0.000192   -0.000229   -0.000155
 step:  19.0690(harm= 19.0690)  dis= 0.00580  next Energy=   -58.329333 (dE=-0.355E-03)
 bond charge predicted
       N       E                     dE             d eps       ncg     rms          rms(c)
DAV:   1    -0.583293717755E+02   -0.98226E-05   -0.18674E-01  3600   0.129E+00    0.314E-02
DAV:   2    -0.583294394768E+02   -0.67701E-04   -0.93160E-04  4200   0.194E-01    0.259E-02
DAV:   3    -0.583294379805E+02    0.14963E-05   -0.11237E-04  4180   0.179E-01    0.188E-02
DAV:   4    -0.583294381990E+02   -0.21848E-06   -0.18606E-04  2920   0.207E-01    0.120E-02
DAV:   5    -0.583294263126E+02    0.11886E-04   -0.12187E-04  2820   0.153E-01    0.567E-03
DAV:   6    -0.583294258689E+02    0.44365E-06   -0.12140E-05  2400   0.498E-02
  10 F= -.58329426E+02 E0= -.58329286E+02  d E =-.447307E-03
 curvature:  -9.74 expect dE=-0.195E-03 dE for cont linesearch -0.151E-06
 trial: gam= 0.58318 g(F)=  0.200E-04 g(S)=  0.000E+00 ort =-0.768E-06 (trialstep = 0.874E+01)
 search vector abs. value=  0.320E-04
 bond charge predicted
       N       E                     dE             d eps       ncg     rms          rms(c)
DAV:   1    -0.583292943640E+02    0.13195E-03   -0.59444E-02  3600   0.718E-01    0.161E-02
DAV:   2    -0.583293103116E+02   -0.15948E-04   -0.22755E-04  4200   0.111E-01    0.147E-02
DAV:   3    -0.583293093723E+02    0.93931E-06   -0.33540E-05  3700   0.950E-02
  11 F= -.58329309E+02 E0= -.58329175E+02  d E =0.116497E-03
 trial-energy change:    0.000116  1 .order   -0.000138   -0.000171   -0.000106
 step:  23.0341(harm= 23.0341)  dis= 0.00224  next Energy=   -58.329651 (dE=-0.225E-03)
 bond charge predicted
       N       E                     dE             d eps       ncg     rms          rms(c)
DAV:   1    -0.583292565438E+02    0.53768E-04   -0.15885E-01  3600   0.118E+00    0.297E-02
DAV:   2    -0.583293145151E+02   -0.57971E-04   -0.89759E-04  4380   0.323E-01    0.324E-02
DAV:   3    -0.583292916145E+02    0.22901E-04   -0.51116E-04  4060   0.338E-01    0.218E-02
DAV:   4    -0.583292842152E+02    0.73993E-05   -0.72500E-05  3920   0.138E-01
  12 F= -.58329284E+02 E0= -.58329162E+02  d E =0.141654E-03
 curvature: -18.87 expect dE=-0.419E-04 dE for cont linesearch -0.808E-06
 trial: gam= 0.02463 g(F)=  0.222E-05 g(S)=  0.000E+00 ort = 0.117E-05 (trialstep = 0.116E+02)
 search vector abs. value=  0.230E-05
 reached required accuracy - stopping structural energy minimisation
