 running on   18 total cores
 distrk:  each k-point on   18 cores,    1 groups
 distr:  one band on    1 cores,   18 groups
 using from now: INCAR     
 vasp.5.4.1 24Jun15 (build Oct 26 2018 17:15:27) complex                        
  
 POSCAR found type information on POSCAR  Mn Bi
 POSCAR found :  2 types and       4 ions
 scaLAPACK will be used

 ----------------------------------------------------------------------------- 
|                                                                             |
|           W    W    AA    RRRRR   N    N  II  N    N   GGGG   !!!           |
|           W    W   A  A   R    R  NN   N  II  NN   N  G    G  !!!           |
|           W    W  A    A  R    R  N N  N  II  N N  N  G       !!!           |
|           W WW W  AAAAAA  RRRRR   N  N N  II  N  N N  G  GGG   !            |
|           WW  WW  A    A  R   R   N   NN  II  N   NN  G    G                |
|           W    W  A    A  R    R  N    N  II  N    N   GGGG   !!!           |
|                                                                             |
|      For optimal performance we recommend to set                            |
|        NCORE= 4 - approx SQRT( number of cores)                             |
|      NCORE specifies how many cores store one orbital (NPAR=cpu/NCORE).     |
|      This setting can  greatly improve the performance of VASP for DFT.     |
|      The default, NPAR=number of cores might be grossly inefficient         |
|      on modern multi-core architectures or massively parallel machines.     |
|      Do your own testing !!!!                                               |
|      Unfortunately you need to use the default for GW and RPA calculations. |
|      (for HF NCORE is supported but not extensively tested yet)             |
|                                                                             |
 ----------------------------------------------------------------------------- 

 LDA part: xc-table for Ceperly-Alder, standard interpolation
 POSCAR, INCAR and KPOINTS ok, starting setup
 WARNING: small aliasing (wrap around) errors must be expected
 FFT: planning ...
 WAVECAR not read
 entering main loop
       N       E                     dE             d eps       ncg     rms          rms(c)
DAV:   1     0.837859036035E+02    0.83786E+02   -0.97748E+03 26640   0.119E+03
DAV:   2    -0.190881117153E+02   -0.10287E+03   -0.10272E+03 26694   0.164E+02
DAV:   3    -0.253041357782E+02   -0.62160E+01   -0.61649E+01 47754   0.468E+01
DAV:   4    -0.253910891052E+02   -0.86953E-01   -0.85318E-01 29934   0.496E+00
DAV:   5    -0.253920077680E+02   -0.91866E-03   -0.91824E-03 48186   0.715E-01    0.133E+01
DAV:   6    -0.302527687802E+02   -0.48608E+01   -0.12915E+02 40608   0.112E+02    0.223E+01
DAV:   7    -0.239229054725E+02    0.63299E+01   -0.77020E+01 40050   0.866E+01    0.640E+00
DAV:   8    -0.240368509826E+02   -0.11395E+00   -0.52403E-01 26964   0.552E+00    0.588E+00
DAV:   9    -0.242754543249E+02   -0.23860E+00   -0.11582E+00 41490   0.103E+01    0.370E+00
DAV:  10    -0.243268227182E+02   -0.51368E-01   -0.14876E+00 40806   0.143E+01    0.230E+00
DAV:  11    -0.243337571225E+02   -0.69344E-02   -0.44177E-02 40608   0.188E+00    0.109E+00
DAV:  12    -0.243389541223E+02   -0.51970E-02   -0.45396E-02 42678   0.179E+00    0.374E-01
DAV:  13    -0.243388156217E+02    0.13850E-03   -0.63247E-03 42858   0.657E-01    0.214E-01
DAV:  14    -0.243387295701E+02    0.86052E-04   -0.11185E-03 37350   0.233E-01    0.376E-02
DAV:  15    -0.243387468243E+02   -0.17254E-04   -0.19959E-04 40806   0.143E-01    0.159E-02
DAV:  16    -0.243387471798E+02   -0.35545E-06   -0.16015E-05 13716   0.380E-02
   1 F= -.24338747E+02 E0= -.24338626E+02  d E =-.243387E+02  mag=    -0.0000
 curvature:   0.00 expect dE= 0.000E+00 dE for cont linesearch  0.000E+00
 trial: gam= 0.00000 g(F)=  0.138E-40 g(S)=  0.348E-03 ort = 0.000E+00 (trialstep = 0.100E+01)
 search vector abs. value=  0.348E-03
 bond charge predicted
       N       E                     dE             d eps       ncg     rms          rms(c)
DAV:   1    -0.243394713772E+02   -0.72455E-03   -0.10942E-02 28242   0.173E+00    0.155E-01
DAV:   2    -0.243396090623E+02   -0.13769E-03   -0.11590E-02 40554   0.133E+00    0.154E-01
DAV:   3    -0.243391472100E+02    0.46185E-03   -0.43409E-03 40320   0.821E-01    0.275E-02
DAV:   4    -0.243391323817E+02    0.14828E-04   -0.79435E-05 27648   0.769E-02    0.111E-02
DAV:   5    -0.243391319411E+02    0.44059E-06   -0.58399E-06 13392   0.242E-02
   2 F= -.24339132E+02 E0= -.24339011E+02  d E =-.384761E-03  mag=    -0.0000
 ZBRENT: can't locate minimum, use default step
 trial-energy change:   -0.000385  1 .order   -0.000349   -0.000348   -0.000351
 step:   4.0000(harm=  4.0000)  dis= 0.00000  next Energy=   -24.340158 (dE=-0.141E-02)
 bond charge predicted
       N       E                     dE             d eps       ncg     rms          rms(c)
DAV:   1    -0.243431263343E+02   -0.39940E-02   -0.95359E-02 28602   0.506E+00    0.481E-01
DAV:   2    -0.243444046289E+02   -0.12783E-02   -0.11065E-01 40446   0.409E+00    0.476E-01
DAV:   3    -0.243399953520E+02    0.44093E-02   -0.41769E-02 40320   0.255E+00    0.862E-02
DAV:   4    -0.243398496906E+02    0.14566E-03   -0.74446E-04 28512   0.239E-01    0.346E-02
DAV:   5    -0.243398398058E+02    0.98848E-05   -0.77957E-05 40878   0.748E-02
   3 F= -.24339840E+02 E0= -.24339719E+02  d E =-.109263E-02  mag=     0.0000
 curvature:  -3.01 expect dE=-0.140E-03 dE for cont linesearch -0.140E-03
 ZBRENT: increasing intervall
 opt :  10.0000  next Energy=   -24.339263 (dE=-0.515E-03)
 bond charge predicted
       N       E                     dE             d eps       ncg     rms          rms(c)
DAV:   1    -0.243523898059E+02   -0.12540E-01   -0.38290E-01 28746   0.101E+01    0.964E-01
DAV:   2    -0.243570866418E+02   -0.46968E-02   -0.43763E-01 40338   0.811E+00    0.942E-01
DAV:   3    -0.243398235751E+02    0.17263E-01   -0.16637E-01 40356   0.507E+00    0.176E-01
DAV:   4    -0.243392353654E+02    0.58821E-03   -0.29999E-03 28602   0.490E-01    0.706E-02
DAV:   5    -0.243391834412E+02    0.51924E-04   -0.33273E-04 41058   0.154E-01    0.348E-02
DAV:   6    -0.243391839263E+02   -0.48511E-06   -0.15185E-05 16866   0.370E-02
   4 F= -.24339184E+02 E0= -.24339075E+02  d E =-.436747E-03  mag=     0.0000
 curvature:  12.44 expect dE= 0.387E-02 dE for cont linesearch  0.380E-02
 ZBRENT: bracketing found
 ZBRENT: interpolating
 opt :   5.6834  next Energy=   -24.339947 (dE=-0.120E-02)
 bond charge predicted
       N       E                     dE             d eps       ncg     rms          rms(c)
DAV:   1    -0.243468558626E+02   -0.76724E-02   -0.20149E-01 29034   0.732E+00    0.694E-01
DAV:   2    -0.243496939219E+02   -0.28381E-02   -0.23758E-01 40518   0.599E+00    0.688E-01
DAV:   3    -0.243402669935E+02    0.94269E-02   -0.86659E-02 40320   0.367E+00    0.116E-01
DAV:   4    -0.243399409720E+02    0.32602E-03   -0.15869E-03 28350   0.296E-01    0.495E-02
DAV:   5    -0.243399228070E+02    0.18165E-04   -0.14669E-04 41436   0.120E-01    0.230E-02
DAV:   6    -0.243399273508E+02   -0.45438E-05   -0.74145E-06 14130   0.261E-02
   5 F= -.24339927E+02 E0= -.24339807E+02  d E =-.118017E-02  mag=    -0.0000
 curvature:  -0.35 expect dE=-0.159E-05 dE for cont linesearch -0.673E-06
 trial: gam= 0.00000 g(F)=  0.174E-41 g(S)=  0.455E-05 ort =-0.259E-04 (trialstep = 0.194E+01)
 search vector abs. value=  0.455E-05
 reached required accuracy - stopping structural energy minimisation
