 vasp.5.4.1 05Feb16 (build Nov 22 2018 20:17:51) complex                        
  
 POSCAR found type information on POSCAR  Pd H 
 04/POSCAR found :  2 types and       5 ions
 scaLAPACK will be used

 ----------------------------------------------------------------------------- 
|                                                                             |
|           W    W    AA    RRRRR   N    N  II  N    N   GGGG   !!!           |
|           W    W   A  A   R    R  NN   N  II  NN   N  G    G  !!!           |
|           W    W  A    A  R    R  N N  N  II  N N  N  G       !!!           |
|           W WW W  AAAAAA  RRRRR   N  N N  II  N  N N  G  GGG   !            |
|           WW  WW  A    A  R   R   N   NN  II  N   NN  G    G                |
|           W    W  A    A  R    R  N    N  II  N    N   GGGG   !!!           |
|                                                                             |
|      For optimal performance we recommend to set                            |
|        NCORE= 4 - approx SQRT( number of cores)                             |
|      NCORE specifies how many cores store one orbital (NPAR=cpu/NCORE).     |
|      This setting can  greatly improve the performance of VASP for DFT.     |
|      The default, NPAR=number of cores might be grossly inefficient         |
|      on modern multi-core architectures or massively parallel machines.     |
|      Do your own testing !!!!                                               |
|      Unfortunately you need to use the default for GW and RPA calculations. |
|      (for HF NCORE is supported but not extensively tested yet)             |
|                                                                             |
 ----------------------------------------------------------------------------- 

 LDA part: xc-table for Ceperly-Alder, standard interpolation
 POSCAR found type information on POSCAR  Pd H 
 00/POSCAR found :  2 types and       5 ions
 POSCAR found type information on POSCAR  Pd H 
 05/POSCAR found :  2 types and       5 ions
 Jacobian:    5.26317925886129     
 POSCAR, INCAR and KPOINTS ok, starting setup
 WARNING: small aliasing (wrap around) errors must be expected
 FFT: planning ...
 WAVECAR not read
 entering main loop
       N       E                     dE             d eps       ncg     rms          rms(c)
DAV:   1     0.384700953208E+03    0.38470E+03   -0.19466E+04  5810   0.160E+03
DAV:   2    -0.210256300582E+01   -0.38680E+03   -0.36862E+03  5820   0.457E+02
DAV:   3    -0.218165437122E+02   -0.19714E+02   -0.17766E+02  6815   0.107E+02
DAV:   4    -0.223785238251E+02   -0.56198E+00   -0.55760E+00  6265   0.208E+01
DAV:   5    -0.223921665408E+02   -0.13643E-01   -0.13641E-01  6960   0.281E+00    0.654E+00
DAV:   6    -0.214467444869E+02    0.94542E+00   -0.30805E+00  6510   0.210E+01    0.186E+00
DAV:   7    -0.214661005853E+02   -0.19356E-01   -0.78154E-01  7650   0.181E+01    0.226E+00
DAV:   8    -0.213648097789E+02    0.10129E+00   -0.17908E-01  8035   0.100E+01    0.609E-01
DAV:   9    -0.213570905900E+02    0.77192E-02   -0.27117E-02  7590   0.174E+00    0.270E-01
DAV:  10    -0.213562615902E+02    0.82900E-03   -0.76426E-03  8000   0.173E+00    0.219E-01
DAV:  11    -0.213554768113E+02    0.78478E-03   -0.20168E-03  7935   0.105E+00    0.269E-02
DAV:  12    -0.213554863682E+02   -0.95569E-05   -0.18057E-04  6245   0.120E-01    0.110E-02
DAV:  13    -0.213554917436E+02   -0.53754E-05   -0.97081E-06  3670   0.290E-02
   1 F= -.21355492E+02 E0= -.21355272E+02  d E =-.213555E+02
quench:  g(F)=  0.000E+00 g(S)=  0.000E+00 dE (1.order)= 0.000E+00
 bond charge predicted
       N       E                     dE             d eps       ncg     rms          rms(c)
DAV:   1    -0.243339367123E+02   -0.29785E+01   -0.20414E+02  5800   0.117E+02    0.766E+00
DAV:   2    -0.235359607789E+02    0.79798E+00   -0.11796E+01  8730   0.272E+01    0.241E+00
DAV:   3    -0.234392169928E+02    0.96744E-01   -0.61792E-01  8275   0.116E+01    0.224E+00
DAV:   4    -0.233868615445E+02    0.52355E-01   -0.23585E-01  8220   0.958E+00    0.114E+00
DAV:   5    -0.233599192637E+02    0.26942E-01   -0.68771E-02  8955   0.348E+00    0.260E-01
DAV:   6    -0.233585229952E+02    0.13963E-02   -0.60920E-03  6485   0.662E-01    0.841E-02
DAV:   7    -0.233585274287E+02   -0.44336E-05   -0.46499E-04  6690   0.285E-01    0.350E-02
DAV:   8    -0.233585458812E+02   -0.18452E-04   -0.82897E-05  6095   0.785E-02    0.942E-03
DAV:   9    -0.233585447556E+02    0.11256E-05   -0.59400E-06  3455   0.258E-02
   2 F= -.23358545E+02 E0= -.23358342E+02  d E =-.200305E+01
quench:  g(F)=  0.000E+00 g(S)=  0.000E+00 dE (1.order)= 0.000E+00
 bond charge predicted
       N       E                     dE             d eps       ncg     rms          rms(c)
DAV:   1    -0.234777503691E+02   -0.11920E+00   -0.25141E+02  5800   0.101E+02    0.281E+00
DAV:   2    -0.243200605155E+02   -0.84231E+00   -0.11694E+01  8715   0.218E+01    0.225E+00
DAV:   3    -0.242157653933E+02    0.10430E+00   -0.20301E-01  6605   0.398E+00    0.142E+00
DAV:   4    -0.241993039353E+02    0.16461E-01   -0.38543E-02  8995   0.189E+00    0.107E+00
DAV:   5    -0.241764179625E+02    0.22886E-01   -0.48248E-02  8695   0.179E+00    0.553E-01
DAV:   6    -0.241712786841E+02    0.51393E-02   -0.47449E-02  9010   0.150E+00    0.139E-01
DAV:   7    -0.241705727921E+02    0.70589E-03   -0.24785E-03  6940   0.438E-01    0.513E-02
DAV:   8    -0.241705259558E+02    0.46836E-04   -0.47910E-04  8875   0.134E-01    0.861E-03
DAV:   9    -0.241705242286E+02    0.17272E-05   -0.50905E-06  3270   0.220E-02
   3 F= -.24170524E+02 E0= -.24170316E+02  d E =-.811979E+00
quench:  g(F)=  0.000E+00 g(S)=  0.000E+00 dE (1.order)= 0.000E+00
 bond charge predicted
       N       E                     dE             d eps       ncg     rms          rms(c)
DAV:   1    -0.239852338100E+02    0.18529E+00   -0.18670E+02  5800   0.827E+01    0.328E+00
DAV:   2    -0.243389148687E+02   -0.35368E+00   -0.78155E+00  8695   0.189E+01    0.145E+00
DAV:   3    -0.243002948920E+02    0.38620E-01   -0.18641E-01  7360   0.419E+00    0.980E-01
DAV:   4    -0.242939472566E+02    0.63476E-02   -0.44985E-02  8930   0.336E+00    0.758E-01
DAV:   5    -0.242855007313E+02    0.84465E-02   -0.38387E-02  8795   0.184E+00    0.164E-01
DAV:   6    -0.242854333882E+02    0.67343E-04   -0.16937E-03  6275   0.428E-01    0.856E-02
DAV:   7    -0.242854298073E+02    0.35808E-05   -0.42672E-04  8000   0.197E-01    0.192E-02
DAV:   8    -0.242854255037E+02    0.43036E-05   -0.22202E-05  4860   0.658E-02
   4 F= -.24285426E+02 E0= -.24285201E+02  d E =-.114901E+00
quench:  g(F)=  0.000E+00 g(S)=  0.000E+00 dE (1.order)= 0.000E+00
 bond charge predicted
       N       E                     dE             d eps       ncg     rms          rms(c)
DAV:   1    -0.247201259642E+02   -0.43470E+00   -0.85455E+00  5800   0.339E+01    0.400E+00
DAV:   2    -0.243243193113E+02    0.39581E+00   -0.17275E+00  5820   0.144E+01    0.465E-01
DAV:   3    -0.243267950339E+02   -0.24757E-02   -0.37274E-02  7420   0.251E+00    0.561E-01
DAV:   4    -0.243236319898E+02    0.31630E-02   -0.10711E-02  8030   0.181E+00    0.245E-01
DAV:   5    -0.243230322158E+02    0.59977E-03   -0.46049E-03  6445   0.581E-01    0.588E-02
DAV:   6    -0.243231112870E+02   -0.79071E-04   -0.33502E-04  6970   0.149E-01    0.290E-02
DAV:   7    -0.243231098398E+02    0.14472E-05   -0.35587E-05  5415   0.452E-02
   5 F= -.24323110E+02 E0= -.24322900E+02  d E =-.376843E-01
quench:  g(F)=  0.000E+00 g(S)=  0.000E+00 dE (1.order)= 0.000E+00
 bond charge predicted
       N       E                     dE             d eps       ncg     rms          rms(c)
DAV:   1    -0.246023136187E+02   -0.27920E+00   -0.81395E+00  5800   0.298E+01    0.335E+00
DAV:   2    -0.243317138523E+02    0.27060E+00   -0.12326E+00  6115   0.117E+01    0.506E-01
DAV:   3    -0.243372235888E+02   -0.55097E-02   -0.63568E-02  8650   0.349E+00    0.742E-01
DAV:   4    -0.243302493802E+02    0.69742E-02   -0.21035E-02  7995   0.254E+00    0.254E-01
DAV:   5    -0.243290840895E+02    0.11653E-02   -0.73867E-03  6745   0.567E-01    0.621E-02
DAV:   6    -0.243290869501E+02   -0.28605E-05   -0.55805E-04  6455   0.210E-01    0.354E-02
DAV:   7    -0.243291025351E+02   -0.15585E-04   -0.63139E-05  6515   0.557E-02    0.171E-02
DAV:   8    -0.243291058253E+02   -0.32903E-05   -0.48358E-05  5945   0.455E-02
   6 F= -.24329106E+02 E0= -.24328896E+02  d E =-.599599E-02
quench:  g(F)=  0.000E+00 g(S)=  0.000E+00 dE (1.order)= 0.000E+00
 bond charge predicted
       N       E                     dE             d eps       ncg     rms          rms(c)
DAV:   1    -0.243486098348E+02   -0.19507E-01   -0.41589E+00  5800   0.143E+01    0.916E-01
DAV:   2    -0.243446220320E+02    0.39878E-02   -0.27903E-01  7785   0.321E+00    0.309E-01
DAV:   3    -0.243422407421E+02    0.23813E-02   -0.13271E-02  6440   0.850E-01    0.171E-01
DAV:   4    -0.243423803843E+02   -0.13964E-03   -0.34567E-03  8970   0.856E-01    0.215E-01
DAV:   5    -0.243418175913E+02    0.56279E-03   -0.13059E-03  7885   0.704E-01    0.456E-02
DAV:   6    -0.243417932926E+02    0.24299E-04   -0.14439E-04  6705   0.111E-01    0.134E-02
DAV:   7    -0.243417922669E+02    0.10257E-05   -0.12142E-05  3275   0.381E-02
   7 F= -.24341792E+02 E0= -.24341559E+02  d E =-.126864E-01
quench:  g(F)=  0.000E+00 g(S)=  0.000E+00 dE (1.order)= 0.000E+00
 bond charge predicted
       N       E                     dE             d eps       ncg     rms          rms(c)
DAV:   1    -0.243867201942E+02   -0.44927E-01   -0.30263E+00  5800   0.153E+01    0.147E+00
DAV:   2    -0.243413577405E+02    0.45362E-01   -0.31260E-01  7360   0.514E+00    0.226E-01
DAV:   3    -0.243410074699E+02    0.35027E-03   -0.11996E-02  6925   0.897E-01    0.184E-01
DAV:   4    -0.243409176804E+02    0.89789E-04   -0.20031E-03  7740   0.833E-01    0.177E-01
DAV:   5    -0.243405210508E+02    0.39663E-03   -0.12468E-03  8760   0.494E-01    0.364E-02
DAV:   6    -0.243405138636E+02    0.71873E-05   -0.10561E-04  6170   0.105E-01    0.196E-02
DAV:   7    -0.243405142891E+02   -0.42555E-06   -0.19004E-05  4885   0.389E-02
   8 F= -.24340514E+02 E0= -.24340259E+02  d E =0.127798E-02
quench:  g(F)=  0.000E+00 g(S)=  0.000E+00 dE (1.order)= 0.000E+00
 bond charge predicted
       N       E                     dE             d eps       ncg     rms          rms(c)
DAV:   1    -0.243410556035E+02   -0.54174E-03   -0.23936E-02  5800   0.945E-01    0.318E-02
DAV:   2    -0.243411223507E+02   -0.66747E-04   -0.10658E-03  8905   0.201E-01    0.232E-02
DAV:   3    -0.243411110544E+02    0.11296E-04   -0.19080E-05  3790   0.497E-02    0.163E-02
DAV:   4    -0.243411096969E+02    0.13576E-05   -0.13707E-05  2985   0.686E-02
   9 F= -.24341110E+02 E0= -.24340857E+02  d E =-.595408E-03
quench:  g(F)=  0.000E+00 g(S)=  0.000E+00 dE (1.order)= 0.000E+00
 bond charge predicted
       N       E                     dE             d eps       ncg     rms          rms(c)
DAV:   1    -0.243419646446E+02   -0.85359E-03   -0.84449E-02  5800   0.184E+00    0.800E-02
DAV:   2    -0.243421322032E+02   -0.16756E-03   -0.41729E-03  8155   0.366E-01    0.430E-02
DAV:   3    -0.243420928796E+02    0.39324E-04   -0.14218E-04  6885   0.984E-02    0.262E-02
DAV:   4    -0.243420936082E+02   -0.72862E-06   -0.51017E-05  5530   0.131E-01
  10 F= -.24342094E+02 E0= -.24341846E+02  d E =-.983911E-03
quench:  g(F)=  0.000E+00 g(S)=  0.000E+00 dE (1.order)= 0.000E+00
 bond charge predicted
       N       E                     dE             d eps       ncg     rms          rms(c)
DAV:   1    -0.243429614258E+02   -0.86855E-03   -0.13024E-01  5800   0.220E+00    0.677E-02
DAV:   2    -0.243432972645E+02   -0.33584E-03   -0.49190E-03  8960   0.468E-01    0.515E-02
DAV:   3    -0.243432522312E+02    0.45033E-04   -0.10863E-04  7660   0.122E-01    0.364E-02
DAV:   4    -0.243432415880E+02    0.10643E-04   -0.34890E-05  4020   0.122E-01    0.321E-02
DAV:   5    -0.243432253852E+02    0.16203E-04   -0.11125E-04  8580   0.816E-02    0.500E-03
DAV:   6    -0.243432259895E+02   -0.60425E-06   -0.31945E-06  2975   0.157E-02
  11 F= -.24343226E+02 E0= -.24342985E+02  d E =-.113238E-02
quench:  g(F)=  0.000E+00 g(S)=  0.000E+00 dE (1.order)= 0.000E+00
 bond charge predicted
       N       E                     dE             d eps       ncg     rms          rms(c)
DAV:   1    -0.243442725546E+02   -0.10472E-02   -0.12079E-01  5800   0.220E+00    0.901E-02
DAV:   2    -0.243445687338E+02   -0.29618E-03   -0.55155E-03  8855   0.439E-01    0.563E-02
DAV:   3    -0.243445195026E+02    0.49231E-04   -0.16131E-04  8605   0.180E-01    0.443E-02
DAV:   4    -0.243445024696E+02    0.17033E-04   -0.83485E-05  7125   0.177E-01    0.327E-02
DAV:   5    -0.243444813401E+02    0.21129E-04   -0.52150E-05  5600   0.819E-02    0.730E-03
DAV:   6    -0.243444816112E+02   -0.27106E-06   -0.26757E-05  3715   0.329E-02
  12 F= -.24344482E+02 E0= -.24344240E+02  d E =-.125562E-02
quench:  g(F)=  0.000E+00 g(S)=  0.000E+00 dE (1.order)= 0.000E+00
 bond charge predicted
       N       E                     dE             d eps       ncg     rms          rms(c)
DAV:   1    -0.243454194936E+02   -0.93815E-03   -0.16364E-01  5800   0.244E+00    0.640E-02
DAV:   2    -0.243459121461E+02   -0.49265E-03   -0.58493E-03  8885   0.537E-01    0.571E-02
DAV:   3    -0.243458661183E+02    0.46028E-04   -0.10047E-04  7465   0.143E-01    0.417E-02
DAV:   4    -0.243458511063E+02    0.15012E-04   -0.26920E-05  3365   0.106E-01    0.342E-02
DAV:   5    -0.243458260344E+02    0.25072E-04   -0.11660E-04  8390   0.674E-02    0.787E-03
DAV:   6    -0.243458253478E+02    0.68662E-06   -0.94610E-06  2930   0.236E-02
  13 F= -.24345825E+02 E0= -.24345584E+02  d E =-.134374E-02
quench:  g(F)=  0.000E+00 g(S)=  0.000E+00 dE (1.order)= 0.000E+00
 bond charge predicted
       N       E                     dE             d eps       ncg     rms          rms(c)
DAV:   1    -0.243467026361E+02   -0.87660E-03   -0.21567E-01  5800   0.279E+00    0.633E-02
DAV:   2    -0.243473168347E+02   -0.61420E-03   -0.70187E-03  8820   0.569E-01    0.610E-02
DAV:   3    -0.243472643713E+02    0.52463E-04   -0.11177E-04  7715   0.143E-01    0.440E-02
DAV:   4    -0.243472493243E+02    0.15047E-04   -0.22641E-05  3290   0.961E-02    0.381E-02
DAV:   5    -0.243472162942E+02    0.33030E-04   -0.13020E-04  8675   0.714E-02    0.991E-03
DAV:   6    -0.243472134735E+02    0.28208E-05   -0.15236E-05  2930   0.269E-02
  14 F= -.24347213E+02 E0= -.24346972E+02  d E =-.138813E-02
quench:  g(F)=  0.000E+00 g(S)=  0.000E+00 dE (1.order)= 0.000E+00
 bond charge predicted
       N       E                     dE             d eps       ncg     rms          rms(c)
DAV:   1    -0.243480327688E+02   -0.81647E-03   -0.26245E-01  5800   0.306E+00    0.687E-02
DAV:   2    -0.243487563956E+02   -0.72363E-03   -0.82665E-03  8790   0.609E-01    0.628E-02
DAV:   3    -0.243486957111E+02    0.60685E-04   -0.11357E-04  6640   0.118E-01    0.448E-02
DAV:   4    -0.243486804565E+02    0.15255E-04   -0.24927E-05  3365   0.993E-02    0.410E-02
DAV:   5    -0.243486461854E+02    0.34271E-04   -0.14536E-04  8705   0.794E-02    0.110E-02
DAV:   6    -0.243486433612E+02    0.28242E-05   -0.20824E-05  2930   0.325E-02
  15 F= -.24348643E+02 E0= -.24348403E+02  d E =-.142989E-02
quench:  g(F)=  0.000E+00 g(S)=  0.000E+00 dE (1.order)= 0.000E+00
 bond charge predicted
       N       E                     dE             d eps       ncg     rms          rms(c)
DAV:   1    -0.243492211707E+02   -0.57499E-03   -0.30818E-01  5800   0.329E+00    0.673E-02
DAV:   2    -0.243500380978E+02   -0.81693E-03   -0.90885E-03  8730   0.620E-01    0.638E-02
DAV:   3    -0.243499789139E+02    0.59184E-04   -0.12977E-04  6990   0.134E-01    0.467E-02
DAV:   4    -0.243499648294E+02    0.14085E-04   -0.15290E-05  3215   0.754E-02    0.413E-02
DAV:   5    -0.243499230392E+02    0.41790E-04   -0.14779E-04  8650   0.662E-02    0.119E-02
DAV:   6    -0.243499193807E+02    0.36585E-05   -0.35984E-05  4750   0.327E-02
  16 F= -.24349919E+02 E0= -.24349678E+02  d E =-.127602E-02
quench:  g(F)=  0.000E+00 g(S)=  0.000E+00 dE (1.order)= 0.000E+00
 bond charge predicted
       N       E                     dE             d eps       ncg     rms          rms(c)
DAV:   1    -0.243504665779E+02   -0.54354E-03   -0.30144E-01  5800   0.325E+00    0.673E-02
DAV:   2    -0.243512482559E+02   -0.78168E-03   -0.88429E-03  8560   0.598E-01    0.591E-02
DAV:   3    -0.243511929349E+02    0.55321E-04   -0.13208E-04  6480   0.977E-02    0.423E-02
DAV:   4    -0.243511744903E+02    0.18445E-04   -0.16782E-05  3270   0.702E-02    0.382E-02
DAV:   5    -0.243511439304E+02    0.30560E-04   -0.14405E-04  8685   0.789E-02    0.922E-03
DAV:   6    -0.243511422469E+02    0.16836E-05   -0.20894E-05  3010   0.278E-02
  17 F= -.24351142E+02 E0= -.24350903E+02  d E =-.122287E-02
quench:  g(F)=  0.000E+00 g(S)=  0.000E+00 dE (1.order)= 0.000E+00
 bond charge predicted
       N       E                     dE             d eps       ncg     rms          rms(c)
DAV:   1    -0.243516737797E+02   -0.52985E-03   -0.19792E-01  5800   0.264E+00    0.550E-02
DAV:   2    -0.243521915922E+02   -0.51781E-03   -0.59537E-03  8560   0.489E-01    0.512E-02
DAV:   3    -0.243521554025E+02    0.36190E-04   -0.11825E-04  7075   0.139E-01    0.383E-02
DAV:   4    -0.243521449184E+02    0.10484E-04   -0.12032E-05  3145   0.674E-02    0.320E-02
DAV:   5    -0.243521195804E+02    0.25338E-04   -0.95600E-05  6305   0.510E-02    0.885E-03
DAV:   6    -0.243521178479E+02    0.17325E-05   -0.15906E-05  2955   0.289E-02
  18 F= -.24352118E+02 E0= -.24351876E+02  d E =-.975601E-03
quench:  g(F)=  0.000E+00 g(S)=  0.000E+00 dE (1.order)= 0.000E+00
 bond charge predicted
       N       E                     dE             d eps       ncg     rms          rms(c)
DAV:   1    -0.243525458208E+02   -0.42624E-03   -0.63727E-02  5800   0.153E+00    0.454E-02
DAV:   2    -0.243527309431E+02   -0.18512E-03   -0.25091E-03  8795   0.318E-01    0.345E-02
DAV:   3    -0.243527073869E+02    0.23556E-04   -0.39470E-05  6060   0.507E-02    0.213E-02
DAV:   4    -0.243526988434E+02    0.85435E-05   -0.21295E-05  3215   0.542E-02
  19 F= -.24352699E+02 E0= -.24352458E+02  d E =-.580996E-03
quench:  g(F)=  0.000E+00 g(S)=  0.000E+00 dE (1.order)= 0.000E+00
 bond charge predicted
       N       E                     dE             d eps       ncg     rms          rms(c)
DAV:   1    -0.243533042385E+02   -0.59685E-03   -0.54367E-02  5800   0.145E+00    0.481E-02
DAV:   2    -0.243534531823E+02   -0.14894E-03   -0.21375E-03  8795   0.284E-01    0.358E-02
DAV:   3    -0.243534290099E+02    0.24172E-04   -0.31046E-05  4220   0.648E-02    0.244E-02
DAV:   4    -0.243534262903E+02    0.27196E-05   -0.30020E-05  3350   0.103E-01
  20 F= -.24353426E+02 E0= -.24353185E+02  d E =-.727447E-03
quench:  g(F)=  0.000E+00 g(S)=  0.000E+00 dE (1.order)= 0.000E+00
 bond charge predicted
       N       E                     dE             d eps       ncg     rms          rms(c)
DAV:   1    -0.243540460755E+02   -0.61707E-03   -0.58238E-02  5800   0.147E+00    0.374E-02
DAV:   2    -0.243541938662E+02   -0.14779E-03   -0.18259E-03  8805   0.276E-01    0.311E-02
DAV:   3    -0.243541768427E+02    0.17023E-04   -0.23243E-05  3850   0.485E-02    0.220E-02
DAV:   4    -0.243541725436E+02    0.42991E-05   -0.18052E-05  3005   0.712E-02
  21 F= -.24354173E+02 E0= -.24353932E+02  d E =-.746253E-03
quench:  g(F)=  0.000E+00 g(S)=  0.000E+00 dE (1.order)= 0.000E+00
 bond charge predicted
       N       E                     dE             d eps       ncg     rms          rms(c)
DAV:   1    -0.243548624382E+02   -0.68560E-03   -0.52516E-02  5800   0.139E+00    0.335E-02
DAV:   2    -0.243549982917E+02   -0.13585E-03   -0.15727E-03  8840   0.273E-01    0.280E-02
DAV:   3    -0.243549847400E+02    0.13552E-04   -0.17220E-05  3530   0.342E-02    0.203E-02
DAV:   4    -0.243549742815E+02    0.10458E-04   -0.45461E-05  5495   0.407E-02    0.807E-03
DAV:   5    -0.243549734143E+02    0.86720E-06   -0.58740E-06  2940   0.382E-02
  22 F= -.24354973E+02 E0= -.24354736E+02  d E =-.800871E-03
quench:  g(F)=  0.000E+00 g(S)=  0.000E+00 dE (1.order)= 0.000E+00
 bond charge predicted
       N       E                     dE             d eps       ncg     rms          rms(c)
DAV:   1    -0.243556975758E+02   -0.72329E-03   -0.63911E-02  5800   0.159E+00    0.617E-02
DAV:   2    -0.243558772528E+02   -0.17968E-03   -0.29362E-03  8770   0.317E-01    0.376E-02
DAV:   3    -0.243558485354E+02    0.28717E-04   -0.47673E-05  6090   0.701E-02    0.233E-02
DAV:   4    -0.243558463954E+02    0.21399E-05   -0.32623E-05  3475   0.112E-01
  23 F= -.24355846E+02 E0= -.24355607E+02  d E =-.872981E-03
quench:  g(F)=  0.000E+00 g(S)=  0.000E+00 dE (1.order)= 0.000E+00
 reached required accuracy - stopping structural energy minimisation
 writing wavefunctions
