<?xml version="1.0" encoding="ISO-8859-1"?>
<modeling>
 <generator>
  <i name="program" type="string">vasp </i>
  <i name="version" type="string">5.4.1  </i>
  <i name="subversion" type="string">05Feb16 (build Nov 22 2018 20:17:51) complex                          parallel </i>
  <i name="platform" type="string">IFC91_ompi </i>
  <i name="date" type="string">2018 11 24 </i>
  <i name="time" type="string">12:15:43 </i>
 </generator>
 <incar>
  <i type="int" name="ISTART">     0</i>
  <i type="string" name="PREC">normal</i>
  <i type="int" name="NELM">   400</i>
  <i type="int" name="IBRION">     3</i>
  <i name="EDIFF">      0.00001000</i>
  <i name="EDIFFG">     -0.02000000</i>
  <i type="int" name="NSW">   500</i>
  <i type="int" name="ISIF">     3</i>
  <i name="ENCUT">    500.00000000</i>
  <i name="POTIM">      0.00000000</i>
  <i type="int" name="ISMEAR">     0</i>
  <i name="SIGMA">      0.01000000</i>
  <v type="int" name="KPOINT_BSE">    -1     0     0     0</v>
  <i type="int" name="NELM">   400</i>
 </incar>
 <kpoints>
  <generation param="Gamma">
   <v type="int" name="divisions">      10       10       10 </v>
   <v name="usershift">      0.00000000       0.00000000       0.00000000 </v>
   <v name="genvec1">      0.10000000       0.00000000       0.00000000 </v>
   <v name="genvec2">      0.00000000       0.10000000       0.00000000 </v>
   <v name="genvec3">      0.00000000       0.00000000       0.10000000 </v>
   <v name="shift">      0.00000000       0.00000000       0.00000000 </v>
  </generation>
  <varray name="kpointlist" >
   <v>       0.00000000       0.00000000       0.00000000 </v>
   <v>       0.10000000       0.00000000       0.00000000 </v>
   <v>       0.20000000       0.00000000       0.00000000 </v>
   <v>       0.30000000       0.00000000       0.00000000 </v>
   <v>       0.40000000       0.00000000       0.00000000 </v>
   <v>       0.50000000       0.00000000       0.00000000 </v>
   <v>       0.10000000       0.10000000       0.00000000 </v>
   <v>       0.20000000       0.10000000       0.00000000 </v>
   <v>       0.30000000       0.10000000       0.00000000 </v>
   <v>       0.40000000       0.10000000       0.00000000 </v>
   <v>       0.50000000       0.10000000       0.00000000 </v>
   <v>      -0.40000000       0.10000000       0.00000000 </v>
   <v>      -0.30000000       0.10000000       0.00000000 </v>
   <v>      -0.20000000       0.10000000       0.00000000 </v>
   <v>      -0.10000000       0.10000000       0.00000000 </v>
   <v>       0.20000000       0.20000000       0.00000000 </v>
   <v>       0.30000000       0.20000000       0.00000000 </v>
   <v>       0.40000000       0.20000000       0.00000000 </v>
   <v>       0.50000000       0.20000000       0.00000000 </v>
   <v>      -0.40000000       0.20000000       0.00000000 </v>
   <v>      -0.30000000       0.20000000       0.00000000 </v>
   <v>      -0.20000000       0.20000000       0.00000000 </v>
   <v>       0.30000000       0.30000000       0.00000000 </v>
   <v>       0.40000000       0.30000000       0.00000000 </v>
   <v>       0.50000000       0.30000000       0.00000000 </v>
   <v>      -0.40000000       0.30000000       0.00000000 </v>
   <v>      -0.30000000       0.30000000       0.00000000 </v>
   <v>       0.40000000       0.40000000       0.00000000 </v>
   <v>       0.50000000       0.40000000       0.00000000 </v>
   <v>      -0.40000000       0.40000000       0.00000000 </v>
   <v>       0.50000000       0.50000000       0.00000000 </v>
   <v>       0.10000000       0.10000000       0.10000000 </v>
   <v>       0.20000000       0.10000000       0.10000000 </v>
   <v>       0.30000000       0.10000000       0.10000000 </v>
   <v>       0.40000000       0.10000000       0.10000000 </v>
   <v>       0.50000000       0.10000000       0.10000000 </v>
   <v>      -0.40000000       0.10000000       0.10000000 </v>
   <v>      -0.30000000       0.10000000       0.10000000 </v>
   <v>      -0.20000000       0.10000000       0.10000000 </v>
   <v>      -0.10000000       0.10000000       0.10000000 </v>
   <v>       0.20000000       0.20000000       0.10000000 </v>
   <v>       0.30000000       0.20000000       0.10000000 </v>
   <v>       0.40000000       0.20000000       0.10000000 </v>
   <v>       0.50000000       0.20000000       0.10000000 </v>
   <v>      -0.40000000       0.20000000       0.10000000 </v>
   <v>      -0.30000000       0.20000000       0.10000000 </v>
   <v>      -0.20000000       0.20000000       0.10000000 </v>
   <v>      -0.10000000       0.20000000       0.10000000 </v>
   <v>       0.30000000       0.30000000       0.10000000 </v>
   <v>       0.40000000       0.30000000       0.10000000 </v>
   <v>       0.50000000       0.30000000       0.10000000 </v>
   <v>      -0.40000000       0.30000000       0.10000000 </v>
   <v>      -0.30000000       0.30000000       0.10000000 </v>
   <v>      -0.20000000       0.30000000       0.10000000 </v>
   <v>      -0.10000000       0.30000000       0.10000000 </v>
   <v>       0.40000000       0.40000000       0.10000000 </v>
   <v>       0.50000000       0.40000000       0.10000000 </v>
   <v>      -0.40000000       0.40000000       0.10000000 </v>
   <v>      -0.30000000       0.40000000       0.10000000 </v>
   <v>      -0.20000000       0.40000000       0.10000000 </v>
   <v>      -0.10000000       0.40000000       0.10000000 </v>
   <v>       0.50000000       0.50000000       0.10000000 </v>
   <v>      -0.40000000       0.50000000       0.10000000 </v>
   <v>      -0.30000000       0.50000000       0.10000000 </v>
   <v>      -0.20000000       0.50000000       0.10000000 </v>
   <v>      -0.10000000       0.50000000       0.10000000 </v>
   <v>      -0.40000000      -0.40000000       0.10000000 </v>
   <v>      -0.30000000      -0.40000000       0.10000000 </v>
   <v>      -0.20000000      -0.40000000       0.10000000 </v>
   <v>      -0.30000000      -0.30000000       0.10000000 </v>
   <v>      -0.20000000      -0.30000000       0.10000000 </v>
   <v>      -0.20000000      -0.20000000       0.10000000 </v>
   <v>       0.20000000       0.20000000       0.20000000 </v>
   <v>       0.30000000       0.20000000       0.20000000 </v>
   <v>       0.40000000       0.20000000       0.20000000 </v>
   <v>       0.50000000       0.20000000       0.20000000 </v>
   <v>      -0.40000000       0.20000000       0.20000000 </v>
   <v>      -0.30000000       0.20000000       0.20000000 </v>
   <v>      -0.20000000       0.20000000       0.20000000 </v>
   <v>       0.30000000       0.30000000       0.20000000 </v>
   <v>       0.40000000       0.30000000       0.20000000 </v>
   <v>       0.50000000       0.30000000       0.20000000 </v>
   <v>      -0.40000000       0.30000000       0.20000000 </v>
   <v>      -0.30000000       0.30000000       0.20000000 </v>
   <v>      -0.20000000       0.30000000       0.20000000 </v>
   <v>       0.40000000       0.40000000       0.20000000 </v>
   <v>       0.50000000       0.40000000       0.20000000 </v>
   <v>      -0.40000000       0.40000000       0.20000000 </v>
   <v>      -0.30000000       0.40000000       0.20000000 </v>
   <v>      -0.20000000       0.40000000       0.20000000 </v>
   <v>       0.50000000       0.50000000       0.20000000 </v>
   <v>      -0.40000000       0.50000000       0.20000000 </v>
   <v>      -0.30000000       0.50000000       0.20000000 </v>
   <v>      -0.20000000       0.50000000       0.20000000 </v>
   <v>      -0.40000000      -0.40000000       0.20000000 </v>
   <v>      -0.30000000      -0.40000000       0.20000000 </v>
   <v>      -0.30000000      -0.30000000       0.20000000 </v>
   <v>       0.30000000       0.30000000       0.30000000 </v>
   <v>       0.40000000       0.30000000       0.30000000 </v>
   <v>       0.50000000       0.30000000       0.30000000 </v>
   <v>      -0.40000000       0.30000000       0.30000000 </v>
   <v>      -0.30000000       0.30000000       0.30000000 </v>
   <v>       0.40000000       0.40000000       0.30000000 </v>
   <v>       0.50000000       0.40000000       0.30000000 </v>
   <v>      -0.40000000       0.40000000       0.30000000 </v>
   <v>      -0.30000000       0.40000000       0.30000000 </v>
   <v>       0.50000000       0.50000000       0.30000000 </v>
   <v>      -0.40000000       0.50000000       0.30000000 </v>
   <v>      -0.30000000       0.50000000       0.30000000 </v>
   <v>      -0.40000000      -0.40000000       0.30000000 </v>
   <v>       0.40000000       0.40000000       0.40000000 </v>
   <v>       0.50000000       0.40000000       0.40000000 </v>
   <v>      -0.40000000       0.40000000       0.40000000 </v>
   <v>       0.50000000       0.50000000       0.40000000 </v>
   <v>      -0.40000000       0.50000000       0.40000000 </v>
   <v>       0.50000000       0.50000000       0.50000000 </v>
  </varray>
  <varray name="weights" >
   <v>       0.00100000 </v>
   <v>       0.00600000 </v>
   <v>       0.00600000 </v>
   <v>       0.00600000 </v>
   <v>       0.00600000 </v>
   <v>       0.00300000 </v>
   <v>       0.00600000 </v>
   <v>       0.01200000 </v>
   <v>       0.01200000 </v>
   <v>       0.01200000 </v>
   <v>       0.01200000 </v>
   <v>       0.01200000 </v>
   <v>       0.01200000 </v>
   <v>       0.01200000 </v>
   <v>       0.00600000 </v>
   <v>       0.00600000 </v>
   <v>       0.01200000 </v>
   <v>       0.01200000 </v>
   <v>       0.01200000 </v>
   <v>       0.01200000 </v>
   <v>       0.01200000 </v>
   <v>       0.00600000 </v>
   <v>       0.00600000 </v>
   <v>       0.01200000 </v>
   <v>       0.01200000 </v>
   <v>       0.01200000 </v>
   <v>       0.00600000 </v>
   <v>       0.00600000 </v>
   <v>       0.01200000 </v>
   <v>       0.00600000 </v>
   <v>       0.00300000 </v>
   <v>       0.00200000 </v>
   <v>       0.00600000 </v>
   <v>       0.00600000 </v>
   <v>       0.00600000 </v>
   <v>       0.00600000 </v>
   <v>       0.00600000 </v>
   <v>       0.00600000 </v>
   <v>       0.00600000 </v>
   <v>       0.00600000 </v>
   <v>       0.00600000 </v>
   <v>       0.01200000 </v>
   <v>       0.01200000 </v>
   <v>       0.01200000 </v>
   <v>       0.01200000 </v>
   <v>       0.01200000 </v>
   <v>       0.01200000 </v>
   <v>       0.01200000 </v>
   <v>       0.00600000 </v>
   <v>       0.01200000 </v>
   <v>       0.01200000 </v>
   <v>       0.01200000 </v>
   <v>       0.01200000 </v>
   <v>       0.01200000 </v>
   <v>       0.01200000 </v>
   <v>       0.00600000 </v>
   <v>       0.01200000 </v>
   <v>       0.01200000 </v>
   <v>       0.01200000 </v>
   <v>       0.01200000 </v>
   <v>       0.01200000 </v>
   <v>       0.00600000 </v>
   <v>       0.01200000 </v>
   <v>       0.01200000 </v>
   <v>       0.01200000 </v>
   <v>       0.00600000 </v>
   <v>       0.00600000 </v>
   <v>       0.01200000 </v>
   <v>       0.01200000 </v>
   <v>       0.00600000 </v>
   <v>       0.01200000 </v>
   <v>       0.00600000 </v>
   <v>       0.00200000 </v>
   <v>       0.00600000 </v>
   <v>       0.00600000 </v>
   <v>       0.00600000 </v>
   <v>       0.00600000 </v>
   <v>       0.00600000 </v>
   <v>       0.00600000 </v>
   <v>       0.00600000 </v>
   <v>       0.01200000 </v>
   <v>       0.01200000 </v>
   <v>       0.01200000 </v>
   <v>       0.01200000 </v>
   <v>       0.01200000 </v>
   <v>       0.00600000 </v>
   <v>       0.01200000 </v>
   <v>       0.01200000 </v>
   <v>       0.01200000 </v>
   <v>       0.01200000 </v>
   <v>       0.00600000 </v>
   <v>       0.01200000 </v>
   <v>       0.01200000 </v>
   <v>       0.00600000 </v>
   <v>       0.00600000 </v>
   <v>       0.01200000 </v>
   <v>       0.00600000 </v>
   <v>       0.00200000 </v>
   <v>       0.00600000 </v>
   <v>       0.00600000 </v>
   <v>       0.00600000 </v>
   <v>       0.00600000 </v>
   <v>       0.00600000 </v>
   <v>       0.01200000 </v>
   <v>       0.01200000 </v>
   <v>       0.01200000 </v>
   <v>       0.00600000 </v>
   <v>       0.01200000 </v>
   <v>       0.00600000 </v>
   <v>       0.00600000 </v>
   <v>       0.00200000 </v>
   <v>       0.00600000 </v>
   <v>       0.00600000 </v>
   <v>       0.00600000 </v>
   <v>       0.00600000 </v>
   <v>       0.00100000 </v>
  </varray>
 </kpoints>
 <parameters>
  <separator name="general" >
   <i type="string" name="SYSTEM">unknown system</i>
   <i type="logical" name="LCOMPAT"> F  </i>
  </separator>
  <separator name="electronic" >
   <i type="string" name="PREC">normal</i>
   <i name="ENMAX">    500.00000000</i>
   <i name="ENAUG">    416.23000000</i>
   <i name="EDIFF">      0.00001000</i>
   <i type="int" name="IALGO">    38</i>
   <i type="int" name="IWAVPR">    11</i>
   <i type="int" name="NBANDS">    25</i>
   <i name="NELECT">     41.00000000</i>
   <i type="int" name="TURBO">     0</i>
   <i type="int" name="IRESTART">     0</i>
   <i type="int" name="NREBOOT">     0</i>
   <i type="int" name="NMIN">     0</i>
   <i name="EREF">      0.00000000</i>
   <separator name="electronic smearing" >
    <i type="int" name="ISMEAR">     0</i>
    <i name="SIGMA">      0.01000000</i>
    <i name="KSPACING">      0.50000000</i>
    <i type="logical" name="KGAMMA"> T  </i>
   </separator>
   <separator name="electronic projectors" >
    <i type="logical" name="LREAL"> F  </i>
    <v name="ROPT">      0.00000000      0.00000000</v>
    <i type="int" name="LMAXPAW">  -100</i>
    <i type="int" name="LMAXMIX">     2</i>
    <i type="logical" name="NLSPLINE"> F  </i>
   </separator>
   <separator name="electronic startup" >
    <i type="int" name="ISTART">     0</i>
    <i type="int" name="ICHARG">     2</i>
    <i type="int" name="INIWAV">     1</i>
   </separator>
   <separator name="electronic spin" >
    <i type="int" name="ISPIN">     1</i>
    <i type="logical" name="LNONCOLLINEAR"> F  </i>
    <v name="MAGMOM">      1.00000000      1.00000000      1.00000000      1.00000000      1.00000000</v>
    <i name="NUPDOWN">     -1.00000000</i>
    <i type="logical" name="LSORBIT"> F  </i>
    <v name="SAXIS">      0.00000000      0.00000000      1.00000000</v>
    <i type="logical" name="LSPIRAL"> F  </i>
    <v name="QSPIRAL">      0.00000000      0.00000000      0.00000000</v>
    <i type="logical" name="LZEROZ"> F  </i>
   </separator>
   <separator name="electronic exchange-correlation" >
    <i type="logical" name="LASPH"> F  </i>
    <i type="logical" name="LMETAGGA"> F  </i>
   </separator>
   <separator name="electronic convergence" >
    <i type="int" name="NELM">   400</i>
    <i type="int" name="NELMDL">    -5</i>
    <i type="int" name="NELMIN">     2</i>
    <i name="ENINI">    500.00000000</i>
    <separator name="electronic convergence detail" >
     <i type="logical" name="LDIAG"> T  </i>
     <i type="logical" name="LSUBROT"> F  </i>
     <i name="WEIMIN">      0.00100000</i>
     <i name="EBREAK">      0.00000010</i>
     <i name="DEPER">      0.30000000</i>
     <i type="int" name="NRMM">     4</i>
     <i name="TIME">      0.40000000</i>
    </separator>
   </separator>
   <separator name="electronic mixer" >
    <i name="AMIX">      0.40000000</i>
    <i name="BMIX">      1.00000000</i>
    <i name="AMIN">      0.10000000</i>
    <i name="AMIX_MAG">      1.60000000</i>
    <i name="BMIX_MAG">      1.00000000</i>
    <separator name="electronic mixer details" >
     <i type="int" name="IMIX">     4</i>
     <i type="logical" name="MIXFIRST"> F  </i>
     <i type="int" name="MAXMIX">   -45</i>
     <i name="WC">    100.00000000</i>
     <i type="int" name="INIMIX">     1</i>
     <i type="int" name="MIXPRE">     1</i>
     <i type="int" name="MREMOVE">     5</i>
    </separator>
   </separator>
   <separator name="electronic dipolcorrection" >
    <i type="logical" name="LDIPOL"> F  </i>
    <i type="logical" name="LMONO"> F  </i>
    <i type="int" name="IDIPOL">     0</i>
    <i name="EPSILON">      1.00000000</i>
    <v name="DIPOL">   -100.00000000   -100.00000000   -100.00000000</v>
    <i name="EFIELD">      0.00000000</i>
   </separator>
  </separator>
  <separator name="grids" >
   <i type="int" name="NGX">    24</i>
   <i type="int" name="NGY">    24</i>
   <i type="int" name="NGZ">    24</i>
   <i type="int" name="NGXF">    48</i>
   <i type="int" name="NGYF">    48</i>
   <i type="int" name="NGZF">    48</i>
   <i type="logical" name="ADDGRID"> F  </i>
  </separator>
  <separator name="ionic" >
   <i type="int" name="NSW">   500</i>
   <i type="int" name="IBRION">     3</i>
   <i type="int" name="ISIF">     3</i>
   <i name="PSTRESS">      0.00000000</i>
   <i name="EDIFFG">     -0.02000000</i>
   <i type="int" name="NFREE">     0</i>
   <i name="POTIM">      0.00000000</i>
   <i name="SMASS">     -3.00000000</i>
   <i name="SCALEE">      1.00000000</i>
  </separator>
  <separator name="ionic md" >
   <i name="TEBEG">      0.00010000</i>
   <i name="TEEND">      0.00010000</i>
   <i type="int" name="NBLOCK">     1</i>
   <i type="int" name="KBLOCK">   500</i>
   <i type="int" name="NPACO">   256</i>
   <i name="APACO">     16.00000000</i>
  </separator>
  <separator name="symmetry" >
   <i type="int" name="ISYM">     2</i>
   <i name="SYMPREC">      0.00001000</i>
  </separator>
  <separator name="dos" >
   <i type="logical" name="LORBIT"> F  </i>
   <v name="RWIGS">     -1.00000000     -1.00000000</v>
   <i type="int" name="NEDOS">   301</i>
   <i name="EMIN">     10.00000000</i>
   <i name="EMAX">    -10.00000000</i>
   <i name="EFERMI">      0.00000000</i>
  </separator>
  <separator name="writing" >
   <i type="int" name="NWRITE">     2</i>
   <i type="logical" name="LWAVE"> T  </i>
   <i type="logical" name="LCHARG"> T  </i>
   <i type="logical" name="LPARD"> F  </i>
   <i type="logical" name="LVTOT"> F  </i>
   <i type="logical" name="LVHAR"> F  </i>
   <i type="logical" name="LELF"> F  </i>
   <i type="logical" name="LOPTICS"> F  </i>
   <v name="STM">      0.00000000      0.00000000      0.00000000      0.00000000      0.00000000      0.00000000      0.00000000</v>
  </separator>
  <separator name="performance" >
   <i type="int" name="NPAR">     5</i>
   <i type="int" name="NSIM">     4</i>
   <i type="int" name="NBLK">    -1</i>
   <i type="logical" name="LPLANE"> T  </i>
   <i type="logical" name="LSCALAPACK"> T  </i>
   <i type="logical" name="LSCAAWARE"> F  </i>
   <i type="logical" name="LSCALU"> F  </i>
   <i type="logical" name="LASYNC"> F  </i>
   <i type="logical" name="LORBITALREAL"> F  </i>
  </separator>
  <separator name="miscellaneous" >
   <i type="int" name="IDIOT">     3</i>
   <i type="logical" name="LMUSIC"> F  </i>
   <v name="POMASS">    106.42000000      1.00000000</v>
   <v name="DARWINR">      0.00000000      0.00000000</v>
   <v name="DARWINV">      1.00000000      1.00000000</v>
   <i type="logical" name="LCORR"> T  </i>
  </separator>
  <i type="logical" name="GGA_COMPAT"> T  </i>
  <i type="logical" name="LBERRY"> F  </i>
  <i type="int" name="ICORELEVEL">     0</i>
  <i type="logical" name="LDAU"> F  </i>
  <i type="int" name="I_CONSTRAINED_M">     0</i>
  <separator name="electronic exchange-correlation" >
   <i type="string" name="GGA">--</i>
   <i type="int" name="VOSKOWN">     0</i>
   <i type="logical" name="LHFCALC"> F  </i>
   <i type="string" name="PRECFOCK"></i>
   <i type="logical" name="LSYMGRAD"> F  </i>
   <i type="logical" name="LHFONE"> F  </i>
   <i type="logical" name="LRHFCALC"> F  </i>
   <i type="logical" name="LTHOMAS"> F  </i>
   <i type="logical" name="LMODELHF"> F  </i>
   <i name="ENCUT4O">     -1.00000000</i>
   <i type="int" name="EXXOEP">     0</i>
   <i type="int" name="FOURORBIT">     0</i>
   <i name="AEXX">      0.00000000</i>
   <i name="HFALPHA">      0.00000000</i>
   <i name="MCALPHA">      0.00000000</i>
   <i name="ALDAX">      1.00000000</i>
   <i name="AGGAX">      1.00000000</i>
   <i name="ALDAC">      1.00000000</i>
   <i name="AGGAC">      1.00000000</i>
   <i type="int" name="NKREDX">     1</i>
   <i type="int" name="NKREDY">     1</i>
   <i type="int" name="NKREDZ">     1</i>
   <i type="logical" name="SHIFTRED"> F  </i>
   <i type="logical" name="ODDONLY"> F  </i>
   <i type="logical" name="EVENONLY"> F  </i>
   <i type="int" name="LMAXFOCK">     0</i>
   <i type="int" name="NMAXFOCKAE">     0</i>
   <i type="logical" name="LFOCKAEDFT"> F  </i>
   <i name="HFSCREEN">      0.00000000</i>
   <i name="HFSCREENC">      0.00000000</i>
   <i type="int" name="NBANDSGWLOW">     0</i>
  </separator>
  <separator name="vdW DFT" >
   <i type="logical" name="LUSE_VDW"> F  </i>
   <i name="Zab_VDW">     -0.84910000</i>
   <i name="PARAM1">      0.12340000</i>
   <i name="PARAM2">      1.00000000</i>
   <i name="PARAM3">      0.00000000</i>
  </separator>
  <separator name="model GW" >
   <i type="int" name="MODEL_GW">     0</i>
   <i name="MODEL_EPS0">      7.81085649</i>
   <i name="MODEL_ALPHA">      1.00000000</i>
  </separator>
  <separator name="linear response parameters" >
   <i type="logical" name="LEPSILON"> F  </i>
   <i type="logical" name="LRPA"> F  </i>
   <i type="logical" name="LNABLA"> F  </i>
   <i type="logical" name="LVEL"> F  </i>
   <i type="int" name="KINTER">     0</i>
   <i name="CSHIFT">      0.10000000</i>
   <i name="OMEGAMAX">     -1.00000000</i>
   <i name="DEG_THRESHOLD">      0.00200000</i>
  </separator>
  <separator name="orbital magnetization" >
   <i type="logical" name="NUCIND"> F  </i>
   <v name="MAGPOS">      0.00000000      0.00000000      0.00000000</v>
   <i type="logical" name="LNICSALL"> T  </i>
   <i type="logical" name="ORBITALMAG"> F  </i>
   <i type="logical" name="LMAGBLOCH"> F  </i>
   <i type="logical" name="LCHIMAG"> F  </i>
   <i type="logical" name="LGAUGE"> T  </i>
   <i type="int" name="MAGATOM">     0</i>
   <v name="MAGDIPOL">      0.00000000      0.00000000      0.00000000</v>
   <v name="AVECCONST">      0.00000000      0.00000000      0.00000000</v>
  </separator>
  <separator name="response functions" >
   <i type="logical" name="LADDER"> F  </i>
   <i type="logical" name="LFXC"> F  </i>
   <i type="logical" name="LHARTREE"> T  </i>
   <i type="int" name="IBSE">     0</i>
   <v type="int" name="KPOINT">    -1     0     0     0</v>
   <i type="logical" name="LTCTE"> F  </i>
   <i type="logical" name="LTETE"> F  </i>
   <i type="logical" name="LTRIPLET"> F  </i>
   <i type="logical" name="LFXCEPS"> F  </i>
   <i type="logical" name="LFXHEG"> F  </i>
   <i type="int" name="NATURALO">     0</i>
   <i type="logical" name="L2ORDER"> F  </i>
   <i type="logical" name="LUSEW"> F  </i>
   <i name="ENCUTGW">     -2.00000000</i>
   <i name="ENCUTGWSOFT">     -2.00000000</i>
   <i name="ENCUTLF">     -1.00000000</i>
   <i type="int" name="LMAXMP2">    -1</i>
   <i name="SCISSOR">      0.00000000</i>
   <i type="int" name="NOMEGA">     0</i>
   <i type="int" name="NOMEGAR">     0</i>
   <i type="int" name="NBANDSGW">    -1</i>
   <i type="int" name="NBANDSO">    -1</i>
   <i type="int" name="NBANDSV">    -1</i>
   <i type="int" name="NELM">   400</i>
   <i type="int" name="NELMHF">     1</i>
   <i type="int" name="DIM">     3</i>
   <i type="int" name="ANTIRES">     0</i>
   <i name="OMEGAMAX">    -30.00000000</i>
   <i name="OMEGAMIN">    -30.00000000</i>
   <i name="OMEGATL">   -200.00000000</i>
   <i type="int" name="OMEGAGRID">     0</i>
   <i name="CSHIFT">     -0.10000000</i>
   <i type="logical" name="SELFENERGY"> F  </i>
   <i type="logical" name="LSPECTRAL"> F  </i>
   <i type="logical" name="LSPECTRALGW"> F  </i>
   <i type="logical" name="LSINGLES"> F  </i>
   <i type="logical" name="LFERMIGW"> F  </i>
   <i type="logical" name="ODDONLYGW"> F  </i>
   <i type="logical" name="EVENONLYGW"> F  </i>
   <i type="int" name="NKREDLFX">     1</i>
   <i type="int" name="NKREDLFY">     1</i>
   <i type="int" name="NKREDLFZ">     1</i>
   <i type="int" name="MAXMEM">  1800</i>
   <i type="int" name="TELESCOPE">     0</i>
   <i type="int" name="TAUPAR">     1</i>
   <i type="int" name="OMEGAPAR">    -1</i>
   <i name="LAMBDA">      1.00000000</i>
  </separator>
  <separator name="External order field" >
   <i name="OFIELD_KAPPA">      0.00000000</i>
   <v name="OFIELD_K">      0.00000000      0.00000000      0.00000000</v>
   <i name="OFIELD_Q6_NEAR">      0.00000000</i>
   <i name="OFIELD_Q6_FAR">      0.00000000</i>
   <i name="OFIELD_A">      0.00000000</i>
  </separator>
 </parameters>
 <atominfo>
  <atoms>       5 </atoms>
  <types>       2 </types>
  <array name="atoms" >
   <dimension dim="1">ion</dimension>
   <field type="string">element</field>
   <field type="int">atomtype</field>
   <set>
    <rc><c>Pd</c><c>   1</c></rc>
    <rc><c>Pd</c><c>   1</c></rc>
    <rc><c>Pd</c><c>   1</c></rc>
    <rc><c>Pd</c><c>   1</c></rc>
    <rc><c>H </c><c>   2</c></rc>
   </set>
  </array>
  <array name="atomtypes" >
   <dimension dim="1">type</dimension>
   <field type="int">atomspertype</field>
   <field type="string">element</field>
   <field>mass</field>
   <field>valence</field>
   <field type="string">pseudopotential</field>
   <set>
    <rc><c>   4</c><c>Pd</c><c>    106.42000000</c><c>     10.00000000</c><c> PAW_GGA Pd 05Jan2001                   </c></rc>
    <rc><c>   1</c><c>H </c><c>      1.00000000</c><c>      1.00000000</c><c> PAW_GGA H 07Jul1998                    </c></rc>
   </set>
  </array>
 </atominfo>
 <structure name="initialpos" >
  <crystal>
   <varray name="basis" >
    <v>       4.03163046       0.00000000       0.00000000 </v>
    <v>       0.00000000       4.03163046       0.00000000 </v>
    <v>       0.00000000       0.00000000       4.03163046 </v>
   </varray>
   <i name="volume">     65.53029961 </i>
   <varray name="rec_basis" >
    <v>       0.24803861       0.00000000       0.00000000 </v>
    <v>       0.00000000       0.24803861       0.00000000 </v>
    <v>       0.00000000       0.00000000       0.24803861 </v>
   </varray>
  </crystal>
  <varray name="positions" >
   <v>       0.99036074       0.99036074       0.99036074 </v>
   <v>       0.94263992       0.54294726       0.54294726 </v>
   <v>       0.54294726       0.94263992       0.54294726 </v>
   <v>       0.54294726       0.54294726       0.94263992 </v>
   <v>       0.28110483       0.28110483       0.28110483 </v>
  </varray>
 </structure>
 <calculation>
  <scstep>
   <time name="dav">    2.09    2.10</time>
   <time name="total">    2.12    2.12</time>
   <energy>
    <i name="alphaZ">    341.38673382 </i>
    <i name="ewald">  -3222.17681181 </i>
    <i name="hartreedc">   -613.74572614 </i>
    <i name="XCdc">   -115.92344830 </i>
    <i name="pawpsdc">   2710.73687718 </i>
    <i name="pawaedc">  -2461.25616439 </i>
    <i name="eentropy">     -0.00006722 </i>
    <i name="bandstr">    490.07178178 </i>
    <i name="atom">   3255.60777830 </i>
    <i name="e_fr_energy">    384.70095321 </i>
    <i name="e_wo_entrp">    384.70102043 </i>
    <i name="e_0_energy">    384.70098682 </i>
   </energy>
  </scstep>
  <scstep>
   <time name="dav">    2.09    2.09</time>
   <time name="total">    2.09    2.09</time>
   <energy>
    <i name="e_fr_energy">     -5.06229610 </i>
    <i name="e_wo_entrp">     -5.06196319 </i>
    <i name="e_0_energy">     -5.06212964 </i>
   </energy>
  </scstep>
  <scstep>
   <time name="dav">    2.38    2.38</time>
   <time name="total">    2.38    2.38</time>
   <energy>
    <i name="e_fr_energy">    -24.49590376 </i>
    <i name="e_wo_entrp">    -24.49557815 </i>
    <i name="e_0_energy">    -24.49574095 </i>
   </energy>
  </scstep>
  <scstep>
   <time name="dav">    2.16    2.16</time>
   <time name="total">    2.16    2.17</time>
   <energy>
    <i name="e_fr_energy">    -25.05393774 </i>
    <i name="e_wo_entrp">    -25.05363980 </i>
    <i name="e_0_energy">    -25.05378877 </i>
   </energy>
  </scstep>
  <scstep>
   <time name="dav">    2.36    2.37</time>
   <time name="total">    2.49    2.50</time>
   <energy>
    <i name="e_fr_energy">    -25.06732745 </i>
    <i name="e_wo_entrp">    -25.06703624 </i>
    <i name="e_0_energy">    -25.06718185 </i>
   </energy>
  </scstep>
  <scstep>
   <time name="dav">    2.27    2.28</time>
   <time name="total">    2.42    2.43</time>
   <energy>
    <i name="e_fr_energy">    -24.19311331 </i>
    <i name="e_wo_entrp">    -24.19255352 </i>
    <i name="e_0_energy">    -24.19283341 </i>
   </energy>
  </scstep>
  <scstep>
   <time name="dav">    2.58    2.59</time>
   <time name="total">    2.73    2.74</time>
   <energy>
    <i name="e_fr_energy">    -24.27627164 </i>
    <i name="e_wo_entrp">    -24.27576557 </i>
    <i name="e_0_energy">    -24.27601861 </i>
   </energy>
  </scstep>
  <scstep>
   <time name="dav">    2.64    2.65</time>
   <time name="total">    2.79    2.79</time>
   <energy>
    <i name="e_fr_energy">    -24.14916178 </i>
    <i name="e_wo_entrp">    -24.14874355 </i>
    <i name="e_0_energy">    -24.14895267 </i>
   </energy>
  </scstep>
  <scstep>
   <time name="dav">    2.52    2.52</time>
   <time name="total">    2.66    2.67</time>
   <energy>
    <i name="e_fr_energy">    -21.35709059 </i>
    <i name="e_wo_entrp">    -21.35664270 </i>
    <i name="e_0_energy">    -21.35686665 </i>
   </energy>
  </scstep>
  <scstep>
   <time name="dav">    2.62    2.63</time>
   <time name="total">    2.77    2.78</time>
   <energy>
    <i name="e_fr_energy">    -21.35626159 </i>
    <i name="e_wo_entrp">    -21.35584426 </i>
    <i name="e_0_energy">    -21.35605293 </i>
   </energy>
  </scstep>
  <scstep>
   <time name="dav">    2.61    2.61</time>
   <time name="total">    2.75    2.76</time>
   <energy>
    <i name="e_fr_energy">    -21.35547681 </i>
    <i name="e_wo_entrp">    -21.35503604 </i>
    <i name="e_0_energy">    -21.35525643 </i>
   </energy>
  </scstep>
  <scstep>
   <time name="dav">    2.68    2.68</time>
   <time name="total">    2.82    2.83</time>
   <energy>
    <i name="e_fr_energy">    -23.05883823 </i>
    <i name="e_wo_entrp">    -23.05847334 </i>
    <i name="e_0_energy">    -23.05865579 </i>
   </energy>
  </scstep>
  <scstep>
   <time name="dav">    2.11    2.11</time>
   <time name="total">    2.25    2.26</time>
   <energy>
    <i name="e_fr_energy">    -23.05883278 </i>
    <i name="e_wo_entrp">    -23.05846533 </i>
    <i name="e_0_energy">    -23.05864905 </i>
   </energy>
  </scstep>
  <scstep>
   <time name="dav">    1.41    1.41</time>
   <time name="total">    1.43    1.43</time>
   <energy>
    <i name="alphaZ">    343.69354970 </i>
    <i name="ewald">  -3284.75770807 </i>
    <i name="hartreedc">   -532.58134117 </i>
    <i name="XCdc">   -117.04843048 </i>
    <i name="pawpsdc">   2817.35738405 </i>
    <i name="pawaedc">  -2574.39433389 </i>
    <i name="eent  <structure>
   <crystal>
    <varray name="basis" >
     <v>       4.03163046       0.00000000       0.00000000 </v>
     <v>       0.00000000       4.03163046       0.00000000 </v>
     <v>       0.00000000       0.00000000       4.03163046 </v>
    </varray>
    <i name="volu  <structure>
   <crystal>
    <varray name="basis" >
     <v>       4.02259032       0.00000000       0.00000000 </v>
     <v>       0.00000000       4.02259032       0.00000000 </v>
     <v>       0.00000000       0.00000000       4.02259032 </v>
    </varray>
    <i name="volume">     65.09047077 </i>
    <varray name="rec_basis" >
     <v>       0.24859603       0.00000000       0.00000000 </v>
     <v>       0.00000000       0.24859603       0.00000000 </v>
     <v>       0.00000000       0.00000000       0.24859603 </v>
    </varray>
   </crystal>
   <varray name="positions" >
    <v>       0.99732845       0.99732845       0.99732845 </v>
    <v>       0.94032806       0.51506126       0.51506126 </v>
    <v>       0.51506126       0.94032806       0.51506126 </v>
    <v>       0.51506126       0.51506126       0.94032806 </v>
    <v>       0.43222097       0.43222097       0.43222097 </v>
   </varray>
  </structure>
  <varray name="forces" >
   <v>       0.46790611       0.46790611       0.46790611 </v>
   <v>       3.72201062      -2.03838461      -2.03838461 </v>
   <v>      -2.03838461       3.72201062      -2.03838461 </v>
   <v>      -2.03838461      -2.03838461       3.72201062 </v>
   <v>      -0.1131475  <energy>
   <i name="e_fr_energy">    -24.13949477 </i>
   <i name="e_wo_entrp">    -24.13930071 </i>
   <i name="e_0_energy">     -0.00038814 </i>
  </energy>
  <time name="totalsc">   36.35   36.44</time>
 </calculation>
658     -48.20199658     102.36072430 </v>
  </varray>
  <energy>
   <i name="e_fr_energy">    -20.77144767 </i>
   <i name="e_wo_entrp">    -20.77131005 </i>
   <i name="e_0_energy">     -0.00027524 </i>
  </energy>
  <time name="totalsc">      <time name="dav">    2.05    2.06</time>
   <time name="total">    2.20    2.20</time>
   <energy>
    <   <time name="total">    2.20    2.20</time>
   <energy>
    <i name="alphaZ">    335.67385726 </i>
    <i name="ewald">  -3274.25461696 </i>
    <i name="hartreedc">   -515.03242241 </i>
    <i name="XCdc">   -117.89442522 </i>
    <i name="pawpsdc">   2817.49757474 </i>
    <i name="pawaedc">  -2574.53314047 </i>
    <i name="eentropy">     -0.00050961 </i>
    <i name="bandstr">     49.17035361 </i>
    <i name="atom">   3255.60777830 </i>
    <i name="e_fr_energy">    -23.76555076 </i>
    <i name="e_wo_entrp">    -23.76504115 </i>
    <i name="e_0_ene   <time name="dav">    2.83    2.84</time>
   <time name="total">    2.98    2.99</time>
   <energy>
    <   <time name="total">    2.98    2.99</time>
   <energy>
    <i name="e_fr_energy">    -23.63895405 </i>
    <i name="e_wo_entrp">    -23.63859773 </i>
    <i name="e_0_ene   <time name="dav">    2.70    2.71</time>
   <time name="total">    2.85    2.86</time>
   <energy>
    <i name="e_fr_energy">    -23.43921699 </i>
    <i name="e_wo_entrp">    -23.43851674 </i>
    <i name="e_0_energy">    -23.43886687 </i>
   </energy>
  </scstep>
  <scstep>
   <time name="dav">    2.69    2.70</time>
   <time name="total">    2.84    2.84</time>
   <energy>
    <i name="e_fr_energy">    -23.38686154 </i>
    <i name="e_wo_entrp">    -23.38614024 </i>
    <i name="e_0_energy">    -23.38650089 </i>
   </energy>
  </scstep>
  <scstep>
   <time name="dav">    2.94    2.95</time>
   <time name="total">    3.09    3.09</time>
   <energy>
    <i name="e_fr_energy">    -23.35991926 </i>
    <i name="e_wo_entrp">    -23.35952167 </i>
    <i name="e_0_energy">    -23.35972047 </i>
   </energy>
  </scstep>
  <scstep>
   <time name="dav">    2.22    2.22</time>
   <time name="total">    2.36    2.37</time>
   <energy>
    <i name="e_fr_energy">    -23.35852300 </i>
    <i name="e_wo_entrp">    -23.35811661 </i>
    <i name="e_0_energy">    -23.35831980 </i>
   </energy>
  </scstep>
  <scstep>
   <time name="dav">    2.25    2.26</time>
   <time name="total">    2.40    2.40</time>
   <energy>
    <i name="e_fr_energy">    -23.35852743 </i>
    <i name="e_wo_entrp">    -23.35812197 </i>
    <i name="e_0_energy">    -23.35832470 </i>
   </energy>
  </scstep>
  <scstep>
   <time name="dav">    2.07    2.08</time>
   <time name="total">    2.22    2.22</time>
   <energy>
    <i name="e_fr_energy">    -23.35854588 </i>
    <i name="e_wo_entrp">    -23.35814074 </i>
    <i name="e_0_energy">    -23.35834331 </i>
   </energy>
  </scstep>
  <scstep>
   <time name="dav">    1.44    1.45</time>
   <time name="total">    1.46    1.47</time>
   <energy>
    <i name="alphaZ">    322.99688074 </i>
    <i name="ewald">  -3214.06178261 </i>
    <i name="hartreedc">   -562.43225612 </i>
    <i name="XCdc">   -117.81026297 </i>
    <i name="pawpsdc">   2789.63307528 </i>
    <i name="pawaedc">  -2546.03520398 </i>
    <i name="eentropy">     -0.00040532 </i>
    <i name="bandstr">     48.74363  <structure>
   <crystal>
    <varray name="basis" >
     <v>       4.05437353       0.00000000       0.00000000 </v>
     <v>      -0.01496682       4.05437353       0.00000000 </v>
     <v>      -0.01496682      -0  <structure>
   <crystal>
    <varray name="basis" >
     <v>       4.10673635       0.00000000       0.00000000 </v>
     <v>      -0.02127495       4.10673635       0.00000000 </v>
     <v>      -0.02127495      -0.02127495       4.10673635 </v>
    </varray>
    <i name="volume">     69.26127243 </i>
    <varray name="rec_basis" >
     <v>       0.24350236       0.00126146       0.00126800 </v>
     <v>       0.00000000       0.24350236       0.00126146 </v>
     <v>       0.00000000       0.00000000       0.24350236 </v>
    </varray>
   </crystal>
   <varray name="positions" >
    <v>       0.99607867       0.99607867       0.99607867 </v>
    <v>       0.95864286       0.53206356       0.53206356 </v>
    <v>       0.53206356       0.95864286       0.53206356 </v>
    <v>       0.53206356       0.53206356       0.95864286 </v>
    <v>       0.28182352       0.28182352       0.28182352 </v>
   </varray>
  </structure>
  <varray name="forces" >
   <v>       1.02681777       1.03219290       1.03756802 </v>
   <v>     <energy>
   <i name="e_fr_energy">    -24.18972550 </i>
   <i name="e_wo_entrp">    -24.18949160 </i>
   <i name="e_0_energy">     -0.00046780 </i>
  </energy>
  <time name="totalsc">   25.33   25.39</time>
 </calculation>
 -0.12802575 </v>
  </varray>
  <varray   <energy>
   <i name="e_fr_energy">    -23.59902157 </i>
   <i name="e_wo_entrp">    -23.59884258 </i>
   <i name="e_0_energy">     -0.00035797 </i>
  </energy>
  <time name="totalsc">   25.33   25.39</time>
 </calculation>
y>
   <i name="e_fr_energy">    -23.35854476 </i>
   <i name="e_wo_entrp">    -23.35834209 </i>
   <i name="e_0_energy">     -0.00040532 </i>
  </energy>
  <time name="totalsc">   25.33   25.40</time>
 </calculation>
nergy">     -0.00047042 </i>
  </energy>
  <time name="totalsc">      <time name="dav">    2.05    2.05</time>
   <time name="total">    2.19    2.20</time>
   <energy>
    <i name="alphaZ">    329.75   <time name="   <time name="total">    2.23    2.24</time>
   <energy>
    <i name="alphaZ">    322.76460617 </i>
    <i name="ewald">  -3245.62347589 </i>
    <i name="hartreedc">   -532.59590425 </i>
    <i name="XCdc">   -118.00922146 </i>
    <i name="pawpsdc">   2789.46275834 </i>
    <i name="pawaedc">  -2545.87502279 </i>
    <i name="eentropy">     -0.00030251 </i>
    <i name="bandstr">     50.79103372 </i>
    <i name="atom">   3255.60777830 </i>
    <i name="e_fr_energy">    -23.47775037 </i>
    <i name="e_wo_entrp">    <time name="dav">    2.53    2.54</time>
   <time name="tota   <time name="dav">    2.   <time name="dav">    3.87    3.88</time>
   <time name="total">    4.02    4.03</time>
   <energy>
    <i name="e_fr_energy">    -24.28133559 </i>
    <i name="e_wo_entrp">    -24.28080656   <time name="dav">    2.54    2.54</time>
   <time name="total">    2.68    2.68</time>   <time name="dav">    2.27    2.27</time>
   <time name="total">    2.41    2.42</time>
   <energy>
    <i name="e_fr_energy">    -24.27658901 </i>
    <i name="e_wo_entrp">    -24.27603366   <time name="dav">    2.63    2.64</time>
   <time name="total">    2.77    2.78</time>   <time name="dav">    2.85    2.85</time>
   <time name="total">    2.99    3.00</time>
   <energy>
    <i name="e_fr_energy">    -24.27583648 </i>
    <i name="e_wo_entrp">    -24.27537600   <time name="dav">    2.84    2.85</time>
   <time name="total">    2.99    2.99</time>   <time name="dav">    2.77    2.78</time>
   <time name="total">    2.92    2.93</time>
   <energy>
    <i name="e_fr_energy">    -24.27501395 </i>
    <i name="e_wo_entrp">    -24.27445929   <time name="dav">    2.64    2.65</time>
   <time name="total">    2.79    2.79</time>   <time name="dav">    2.56    2.57</time>
   <time name="total">    2.70    2.71</time>
   <energy>
    <i name="e_fr_energy">    -24.27495017 </i>
    <i name="e_wo_entrp">    -24.27440158   <time name="dav">    2.21    2.22</time>
   <time name="total">    2.35    2.36</time>   <time name="dav">    1.88    1.89</time>
   <time name="total">    1.90    1.91</time>
   <energy>
    <i name="alphaZ">    342.02630916 </i>
    <i name="ewald">  -3317.22716639 </i>
       <time name="dav">    1.64    1.65</time>
   <time name="tota   <time name="dav">    2.33    2.33</tim   <time name="dav">    2.80    2.81</time>
   <time name="total">    2.95    2.95</time>
   <energy>
    <i name="e_fr_energy">    -24.17052596 </i>
    <i name="e_wo_entrp">    -24.17010818 </i>
    <i name="e_0_energy">    -24.17031707    <time name="dav">    1.39    1.40</tim   <time name="dav">    1.38    1.39</time>
   <time name="total">    1.40    1.41</time>
   <energy>
    <i name="alphaZ">    322.76460617 </i>
    <i name="ewald">  -3245.62347589 </i>
    <i name="hartreedc">   -533.27302853 </i>
    <i name="XCdc">   -117.97897385 </i>
    <i name="pawpsdc">   2772.86788867 </i>
    <i name="pawaedc">  -2528.49073471 </i>
    <i name="eentropy">     -0.00041681 </i>
    <i name="bandstr">     49.95583243 </i>
    <i name="atom">   3255.60777830 </i>
    <i name="e_fr_energy">    -24.17052423 </i>
    <i name="e_wo_entrp">    -24.17010742 </i>
    <i name="e_0_energy">    -2  <structure>
   <crystal>
    <varray na  <structure>
   <crystal>
    <varray name="basis" >
     <v>       4.10788533       0.00000000       0.00000000 </v>
     <v>      -0.05268509       4.10772096       0.00000000 </v>
     <v>      -0.05268594      -0.05284862       4.10755743 </v>
    </varray>
    <i name="volume">     69.31111566 </i>
    <varray name="rec_basis" >
     <v>       0.24343425       0.00312226       0.00316260 </v>
     <v>       0.00000000       0.24344399       0.00313220 </v>
     <v>       0.00000000       0.00000000       0.24345369 </v>
    </varray>
   </crystal>
   <varray name="positions" >
    <v>       1.00382149       1.00382149       1.00382149 </v>
    <v>       0.97746534       0.51853985       0.51853985 </v>
    <v>       0.51853985       0.97746534       0.51853985 </v>
    <v>       0.51853985       0.51853985       0.97746534 </v>
    <v>       0.28462818       0.28462818       0.28462818 </v>
   </varray>
  </structure>
  <va  <energy>
   <i name="e_fr_energy">    -24.27494170 </i>
   <i name="e_wo_entrp">    -24.27466696 </i>
   <i name="e_0_energy">     -0.00054949 </i>
  </energy>
  <time name="totalsc">   26.40   26.47</time>
 </calculation>
">    -24.07723771 </i>
   <i name="e_wo_entrp">    -24.07703071 </i>
   <i name="e_0_energy">     -0.00041401 </i>
  </energy>
  <time name="totalsc">   26.41   26.47</time>
 </calculation>
    -4.00533358 </v>
   <v>      -3.95397196     -64.46963614      -4.06537894 </v>
   <v>      -4.00533358      -4.06  <energy>
   <i name="e_fr_energy">    -24.05433080   <i    <i name="e_wo_entrp">    -24.05410090    <i   <i name="e_0_energy">     -0.00045981    <i  </energy>
  <time name="totalsc">   26.40   26.47</  <time name="totalsc">   26.40   26.47</time>
    <time name="dav">    2.   <time name="      <time name="total">       <time name="   <time name="total">    2.21    2.22</time>
   <energy>
    <i name="alphaZ">    342.70575108 </i>
    <i name="ewald">  -3322.21963426 </i>
    <i name="hartreedc">   -498.44699443 </i>
    <i name="XCdc">   -117.35208572 </i>
    <i name="pawpsdc">   2788.32490691 </i>
    <i name="pawaedc">  -2544.43437846 </i>
    <i name="eentropy">     -0.00047879 </i>
    <i name="bandstr">     71.49997507 </i>
    <i name="atom">   3255.60777830 </i>
    <i name="e_fr_energy">    -24.31516030 </i>
    <i name="e_wo_entrp">    -24.31468151 </i>
    <i name="e_0_energy">    -24.31492091    <time name="dav">    2.   <time name="      <time name="total">       <time name="   <time name="   <time name="total">    2.96    2.97</time>
   <energy>
    <i name="e_fr_energy">    -24.33891487 </i>
    <i name="e_wo_entrp">    -24.33852079 </i>
    <i name="e_0_energy">     <time name="dav">    2.   <time name="dav   <time name="total">       <time name="total">    2.79    2.80</time>
   <energy>
    <i name="e_fr_energy">    -24.35267815 </i>
    <i name="e_wo_entrp">    -24.35233231 </i>
    <i name="e_0_energy">    -24.35250523 </i>
   </energ   <time name="dav">    2.   <time name="dav   <time nam   <time name="dav">    2.99    3.00</time>
   <time name="total">    3.14    3.15</time>
   <energy>
    <i name="e_fr_energy">    -24.29394726 </i>
    <i name="e_wo_entrp">    -24.29362145 </i>
    <i name="e_0_energy">     <time name="dav">    2.89    2.90</time>
   <time nam   <time name="dav">    3.01    3.02</time>
   <time name="total">    3.16    3.16</time>
   <energy>
    <i name="e_fr_energy">    -24.28550073 </i>
    <i name="e_wo_entrp">    -24.28504391 </i>
    <i name="e_0_energy">     <time name="dav">    2.20    2.21</tim   <time name="   <time name="dav">    2.26    2.26</time>
   <time name="total">    2.40    2.41</time>
   <energy>
    <i name="e_fr_energy">    -24.28543339 </i>
    <i name="e_wo_entrp">    -24.28499005 </i>
    <i name="e_0_energy">     <time name="dav">    2.36    2.37</time>
   <time nam   <time name="dav">    2.62    2.62</time>
   <time name="total">    2.76    2.76</time>
   <energy>
    <i name="e_fr_energy">    -24.28542981 </i>
    <i name="e_wo_entrp">    -24.28497772 </i>
    <i name="e_0_energy">     <time name="dav">    2.01    2.02</time>
   <time nam   <time name="dav">    1.79    1.80</time>
   <time name="total">    1.81    1.82</time>
   <energy>
    <i name="alphaZ">    328.07917193 </i>
    <i name="ewald">  -3267.35627340 </i>
    <i name="hartreedc">   -521.15492901 </i>
    <i name="XCdc">   -117.72631042 </i>
    <i name="pawpsdc">   2780.06688728 </i>
    <i name="pawaedc">  -2535.78047349 </i>
    <i name="eentropy">     -0.00044862 </i>
    <i name="bandstr">     53.97917192 </i>
    <i name="atom">   3255.60777830 </i>
    <i name="e_fr_energy">    -24.28542550 </i>
    <i name="e_wo_entrp">    -24.28497689 </i>
    <i name="e_0  <structure>
   <crystal>
    <varray name="basis" >
    <structure>
   <crystal>
    <varray name="basis" >
     <v>       4.08560300       0.00000000       0.00000000 </v>
     <v>      -0.05376814       4.08541973       0.00000000 </v>
     <v>      -0.05376910      -0.05395126       4.08523729 </v>
    </varray>
    <i name="volume">     68.18834252 </i>
    <varray name="rec_basis" >
     <v>       0.24476191       0.00322131       0.00326405 </v>
     <v>       0.00000000       0.24477289       0.00323257 </v>
     <v>       0.00000000       0.00000000       0.24478382 </v>
    </varray>
   </crystal>
   <varray name="positions" >
    <v>       1.00905404       1.00905404       1.00905404 </v>
    <v>       0.99304750       0.50607544       0.50607544 </v>
    <v>       0.50607544       0.99304750       0.50607544 </v>
    <v>       0.50607544       0.50607544       0.99304750 </v>
    <v>       0.29909378       0.29909378       0.29909378 </v>
   </varray>
  </structure>
  <varray name="forces" >
   <v>      -0.27077539      -0.27441036      -0.27807025 </v>
   <v>      -0.22010470       0.30778489       0.31188990 </v>
   <v>       0.31060141      -0.21600414       0.31188990 </v>
   <v>       0.31060153       0.31470195      -0.21187574 </v>
   <v>   <energy>
   <i name="e_fr_energy">    -24.35915826 </i>
   <i name="e_wo_entrp">    -24.35892516 </i>
   <i name="e_0_energy">     -0.00046621 </i>
  </energy>
  <time name="totalsc">   23.96   24.02</time>
 </calculation>
>      -5.1171  <energy>
   <i name="e_fr_energy">    <i name="e_fr_ener   <i name="e_wo_entrp">     <i name="e_wo_ent   <i name="e_0_energy">     <i name="e_0_ener  </energy>
  <time name="totalsc">   23.96   24.02</time>
 </calcul  <time name="totalsc">   23.96   24.02</time>
 </calculati   <time name="   <time name="dav">    2.      <time name="   <time name="total">       <time name="total   <en   <time name="total">    2.19    2.20</time>
   <energy>
    <i name="alphaZ">    337.06527177 </i>
    <i name="ewald">  -3297.28011926 </i>
    <i name="hartreedc">   -525.61425094 </i>
    <i name="XCdc">   -116.87814323 </i>
    <i name="pawpsdc">   2780.24253127 </i>
    <i name="pawaedc">  -2535.94774778 </i>
    <i name="eentropy">     -0.00033996 </i>
    <i name="bandstr">     78.08489387 </i>
    <i name="atom">   3255.60777830 </i>
    <i name="e_fr_energy">    -24.72012596 </i>
    <i name="e_wo_entrp">    -24.71978600 </i>
    <i name="e_0   <time name="dav">    2.46    2.46</tim      <time name="total">    2.60    2.60</t   <time name="total">    2.62    2.63</time>
   <energy>
    <i name="e_fr_energy">    -24.40518885 </i>
    <i name="e_wo_entrp">    -24.40475248 </i>
    <i name="e_0_energy">    -24.40497067    <time name="dav">    2.40    2.41</time>
   <time name="total">    2.54    2.55</time>
   <energy>
    <i name="e_fr_energy">    -24.34031876 </i>
    <i name="e_wo_entrp">    -24.33987861 </i>
    <i name="e_0_energy">    -24.34009868 </i>
   </energy>
  </scstep>
  <scstep>
   <time name="dav">    2.59    2.59</tim      <time name="total">    2.73    2.74</t   <time name="total">    2.83    2.84</time>
   <energy>
    <i name="e_fr_energy">    -24.40050059 </i>
    <i name="e_wo_entrp">    -24.40006149 </i>
    <i name="e_0_energy">    -24.40028104    <time name="dav">    2.74    2.74</tim      <time name="total">    2.88    2.89</t   <time name="total">    2.84    2.85</time>
   <energy>
    <i name="e_fr_energy">    -24.39858197 </i>
    <i name="e_wo_entrp">    -24.39814238 </i>
    <i name="e_0_energy">    -24.39836218    <time name="dav">    2.08    2.09</tim   <time name="dav">    2.18    2.18</time>
   <time name="total">    2.32    2.33</time>
   <energy>
    <i name="e_fr_energy">    -24.39856733 </i>
    <i name="e_wo_entrp">    -24.39812866 </i>
    <i name="e_0_energy">    -24.39834800    <time name="dav">    2.61    2.62</time>
   <time name="total">    2.75    2.76</time>
   <energy>
    <i name="e_fr_energy">    -24.33308509 </i>
    <i name="e_wo_entrp">    -24.33270635 </i>
    <i name="e_0_energy">    -24.33289572 </i>
   </energy>
  </scstep>
  <scstep>
   <time name="dav">    2.04    2.05</time>
   <time name="total">    2.19    2.19</time>
   <energy>
    <i name="e_fr_energy">    -24.33307446 </i>
    <i name="e_wo_entrp">    -24.33269606 </i>
    <i name="e_0_energy">    -24.33288526 </i>
   </energy>
  </scstep>
  <scstep>
   <time name="dav">    1.31    1.31</time>
   <time name="total">    1.33    1.33</time>
   <energy>
    <i name="alphaZ">    340.99805699 </i>
    <i name="ewald">  -3312.88126835 </i>
    <i name="hartreedc">   -501.22796088 </i>
    <i name="XCdc">   -117.32999231 </i>
    <i name="pawpsdc">   2792.33704425 </i>
    <i name="pawaedc">  -2548.57394957 </i>
    <i name="eentropy">     -0.00037846 </i>
    <i name="bandstr">     66.73759493 </i>
    <i name="atom">   3255.60777830 </i>
    <i name="e_fr_energy">    -24.33307512 </i>
    <i name="e_wo_entrp">    -24.33269666 </i>
    <i name="e_0_energy">    -24.33288589 </i>
   </energy>
  </scstep>
  <structure>
   <crystal>
    <varray name="basis" >
     <v>       4.03327702       0.00000000       0.00000000 </v>
     <v>      -0.04711935       4.03316156       0.00000000 </v>
     <v>      -0.04711973      -0.04723602       4.03304640 </v>
    </varray>
    <i name="volume">     65.60499244 </i>
    <varray name="rec_basis" >
     <v>       0.24793735       0.00289665       0.00293068 </v>
     <v>       0.00000000       0.24794444       0.00290399 </v>
     <v>       0.00000000       0.00000000       0.24795152 </v>
    </varray>
   </crystal>
   <varray name="positions" >
    <v>       0.99158070       0.99158070       0.99158070 </v>
    <v>       0.99405692       0.49461952       0.49461952 </v>
    <v>       0.49461952       0.99405692       0.49461952 </v>
    <v>       0.49461952       0.49461952       0.99405692 </v>
    <v>       0.40870653       0.40870653       0.40870653 </v>
   </varray>
  </structure>
  <varray name="forces" >
   <v>     <energy>
   <i name="e_fr_energy">    -24.27017995 </i>
   <i name="e_wo_entrp">    -24.27006510 </i>
   <i name="e_0_energy">     -0.00022970 </i>
  </energy>
  <time name="totalsc">   24.30   24.36</time>
 </ca  <time name="totalsc">   24.31   24.37</time>
 </calculation>
589704       0.18809468 </v>
  </varray>
  <varray name="stress" >
   <v>       0.04381365      -0.31603002      -0.31976610 </v>
   <v>      -0.31603002       0.03636252      -0.32353357 </v>
   <v>      -0.31976610      -0.32353357       0.02878622 </v>
  </varray>
  <energy>
   <i name="e_fr_energy">    -24.33307512   <i    <i name="e_wo_entrp">    -24.33288589    <i   <i name="e_0_energy">     -0.00037846    <i  </energy>
  <time name="totalsc">   24.31   24.37</  <time name="totalsc">      <time name="dav">    2.03    2.03</time>
   <time name="total">    2.17    2.18</time>
   <energy>
    <   <time name="total">       <time name="total">    2.19    2.20</time>
   <energy>
    <i name="alphaZ">    344.81170507 </i>
    <i name="ewald">  -3322.87747370 </i>
    <i name="hartreedc">   -511.46130599 </i>
    <i name="XCdc">   -116.69673072 </i>
    <i name="pawpsdc">   2790.20689836 </i>
    <i name="pawaedc">  -2546.42548867 </i>
    <i name="eentropy">     -0.00033648 </i>
    <i name="bandstr">     82.23264022 </i>
    <i name="atom">   3255.60777830 </i>
    <i name="e_fr_energy">    -24.60231362 </i>
    <i name="e_wo_entrp">    -24.60197714   <time name="dav">    2.82    2.83</time>
   <time name="total">    2.96    2.97</time>
   <energy>
    <i name="e_fr_energy">    -24.28966235 </i>
    <i name="e_wo_entrp">    -24.28942825 </i>
    <i name="e_0_energy">    -24.28954530 </i>
   </energy>
  </scstep>
  <scstep>
   <time name="dav">    2.20    2.20</time>
   <time name="tota   <time name="dav">    2.64    2.64</time>
   <time name="total">    2.78    2.79</time>
   <energy>
    <i name="e_fr_energy">    -24.40304965 </i>
    <i name="e_wo_entrp">    -24.40252603 </i>
    <i name="e_0_ene   <time name="dav">    2.83    2.84</time>
   <time name="total">    2.97    2.98</time>
   <energy>
    <i name="e_fr_energy">    -24.28828862 </i>
    <i name="e_wo_entrp">    -24.28804935 </i>
    <i name="e_0_energy">    -24.28816899 </i>
   </energy>
  </scstep>
  <scstep>
   <time name="dav">    2.83    2.84</time>
   <time name="total">    2.98    2.98</time>
   <energy>
    <i name="e_fr_energy">    -24.28818840 </i>
    <i name="e_wo_entrp">    -24.28795488 </i>
    <i name="e_0_energy">    -24.28807164 </i>
   </energy>
  </scstep>
  <scstep>
   <time name="dav">    2.75    2.76</time>
   <time name="total">    2.89    2.90</time>
   <energy>
    <i name="e_fr_energy">    -24.28816778 </i>
    <i name="e_wo_entrp">    -24.28793247 </i>
    <i name="e_0_energy">    -24.28805013 </i>
   </energy>
  </scstep>
  <scstep>
   <time name="dav">    1.38    1.38</time>
   <time name="total">    1.40    1.41</time>
   <energy>
    <i name="alphaZ">    339.65850506 </i>
    <i name="ewald">  -3307.25703572 </i>
    <i name="hartreedc">   -503.48792383 </i>
    <i name="XCdc">   -117.34473495 </i>
    <i name="pawpsdc">   2793.24779772 </i>
    <i name="pawaedc">  -2549.52801826 </i>
    <i    <time name="dav">    1.99    1.99</time>
   <time name="total">    2.01    2.01</time>
   <energy>
    <i name="alphaZ">    344.81170507 </i>
    <i name="ewald">  -3322.87747370 </i>
    <i name="hartreedc">   -496.84969793 </i>
    <i name="XCdc">   -117.13352623 </i>
    <i name="paw  <structure>
   <crystal>
    <varray name="basis" >
     <v>       4.03877148       0.00000000       0.00000000 </v>
     <v>      -0.06290375       4.03845626       0.00000000 </v>
     <v>      -0.06290595      -0.06321890       4.03814246 </v>
    </varray>
    <i name="volume">     65.86372670 </i>
    <varray name="rec_basis" >
     <v>       0.24760004         <structure>
   <crystal>
    <varray name="basis" >
     <v>       4.01876269       0.00000000       0.00000000 </v>
     <v>      -0.07663264       4.01823708       0.00000000 </v>
     <v>      -0.07663561      -0.07715690       4.01771268 </v>
    </varray>
    <i name="volume">     64.87939539 </i>
    <varray name="rec_basis" >
     <v>       0.24883281       0.00474554       0.00483748 </v>
     <v>       0.00000000       0.24886536       0.00477926 </v>
     <v>       0.00000000       0.00000000       0.24889784 </v>
    </varray>
   </crystal>
   <varray name="positions" >
    <v>       1.00680849       1.00680849       1.00680849 </v>
    <v>       0.99131267       0.50802484       0.50802484 </v>
    <v>       0.50802484       0.99131267       0.50802484 </v>
    <v>       0.50802484       0.50802484       0.99131267 </v>
    <v>       0.30095876       0.30095876       0.30095876 </v>
   </varray>
  </struc  <energy>
   <i name="e_fr_energy">    -24.40199687 </i>
   <i name="e_wo_entrp">    -24.40178482 </i>
   <i name="e_0_energy">     -0.00042409 </i>
  </energy>
  <time name="totalsc">   22.20   22.25</time>
 </calculation>
y>
   <i name="e_fr_energy">    -24.28816385 </i>
   <i name="e_wo_entrp">    -24.28804617 </i>
   <i name="e_0_energy">     -0.00023536 </i>
  </energy>
  <time name="totalsc">   22.20   22.26</time>
 </calculation>
26</time>
 </calculation>
143      27.81128487      -2.71875213 </v>
   <v>      -2.67374159      -2.71875213      27.70984750 </v>
  </varray>
  <energy>
   <i name="e_fr_energy">    -24.32910583 </i>
   <i name="e_wo_entrp">    -24.32889586 </i>
   <i name="e_0_energy">     -0.00041993 </i>
  </energy>
 <calculation>
  <scstep>
   <time name="dav">    2.03    2.03</time>
   <time name="total">    2.17    2.18</time>
   <energy>
    <   <time name="total">    2.20    2.20</time>
   <energy>
    <i name="alphaZ">    342.60372811 </i>
    <i name="ewald">  -3316.01651577 </i>
    <i name="hartreedc">   -495.70826754 </i>
    <i name="XCdc">   -117.34574925 </i>
    <i name="pawpsdc">   2798.99479661 </i>
    <i name="pawaedc">  -2555.65776896 </i>
    <i name="eentropy">     -0.00048423 </i>
    <i name="bandstr">     63.17387290 </i>
    <i name="atom">   3255.60777830 </i>
    <i name="e_fr_energy">    -24.34860983 </i>
    <i name="e_wo_entrp">    -24.34812560 </i>
    <i name="e_0_ene   <time name="dav">    2.86    2.87</time>
   <time name="total">    3.00    3.01</time>
   <energy>
    <i name="e_fr_energy">    -24.40264171 </i>
    <i name="e_wo_entrp">    -24.40218076 </i>
    <i name="e_0_energy">    -24.40241123 </i>
   </energy>
  </scstep>
  <scstep>
   <time name="dav">    2.82    2.83</time>
   <time name="total">    2.97    2.97</time>
   <energy>
    <i name="e_fr_energy">    -24.40196114 </i>
    <i name="e_wo_entrp">    -24.40152436 </i>
    <i name="e_0_energy">    -24.40174275 </i>
   </energy>
  </scstep>
  <scstep>
   <time name="dav">    2.76    2.76</time>
   <time name="total">    2.90    2.91</time>
   <energy>
    <i name="e_fr_energy">    -24.40176001 </i>
    <i name="e_wo_entrp">    -24.40132163 </i>
    <i name="e_0_energy">    -24.40154082 </i>
   </energy>
  </scstep>
  <scstep>
   <time name="dav">    2.81    2.82</time>
   <time name="total">    2.96    2.96</time>
   <energy>
    <i name="e_fr_energy">    -24.40149672 </i>
    <i name="e_wo_entrp">    -24.40106272 </i>
    <i name="e_0_energy">    -24.40127972 </i>
   </energy>
  </scstep>
  <scstep>
   <time name="dav">    2.81    2.81</time>
   <time name="total">    2.95    2.96</time>
   <energy>
    <i name="e_fr_energy">    -24.40148657 </i>
    <i name="e_wo_entrp">    -24.40105301 </i>
    <i name="e_0_energy">    -24.40126979 </i>
   </energy>
  </scstep>
  <scstep>
   <time name="dav">    1.37    1.37</time>
   <time name="total">    1.39    1.39</time>
   <energy>
    <i name="alphaZ">    345.99216859 </i>
    <i name="ewald">  -3332.91351000 </i>
    <i name="hartreedc">   -492.16424362 </i>
    <i name="XCdc">   -117.24849186 </i>
    <i name="pawpsdc">   2792.07153001 </i>
    <i name="pawaedc">  -2548.37713183 </i>
    <i name="eentropy">     -0.00043360 </i>
    <i name="bandstr">     72.63085132 </i>
    <i name="atom">   3255.60777830 </i>
    <i name="e_fr_energy">    -24.40148270 </i>
    <i name="e_wo_entrp">    -24.40104909 </i>
    <i name="e_0_energy">    -24.40126589 </i>
   </energy>
  </scstep>
  <structure>
   <crystal>
    <varray name="basis" >
     <v>       4.01366384       0.00000000       0.00000000 </v>
     <v>      -0.00943200       4.01366242       0.00000000 </v>
     <v>      -0.00943199      -0.00943347       4.01366099 </v>
    </varray>
    <i name="volume">     64.65803848 </i>
    <varray name="rec_basis" >
     <v>       0.24914892       0.00058549       0.00058687 </v>
     <v>       0.00000000       0.24914901       0.00058559 </v>
     <v>       0.00000000       0.00000000       0.24914909 </v>
    </varray>
   </crystal>
   <varray name="positions" >
    <v>       0.99290880       0.99290880       0.99290880 </v>
    <v>       0.99220150       0.49548162       0.49548162 </v>
    <v>       0.49548162       0.99220150       0.49548162 </v>
    <v>       0.49548162       0.49548162       0.99220150 </v>
    <v>       0.45444709       0.45444709       0.45444709 </v>
   </varray>
  </structure>
  <varray name="forces" >
   <v>       0.02351501       0.02357052       0.02362604 </v>
   <v>      -0.02664774      -0.01628280      -0.01632115 </v>
   <v>      -0.01622001      -0.02668608      -0.01632115 </v>
   <v>      -0.01622001      -0.01625835      -0.02672443 </v>
   <v>       0.03557275       0.03565671       0.03574070 </v>
  </varray>
  <varray name="stress" >
   <v>       4.43550561       0.98427804       0.98659653 </v>
   <v>       0.98427804       4.44016322       0.98894308 </v>
   <v>       0.98659653       0.98894308       4.44483332 </v>
  </varray>
  <energy>
   <i name="e_fr_energy">    -24.35131234 </i>
   <i name="e_wo_entrp">    -24.35110270 </i>
   <i name="e_0_energy">     -0.00041929 </i>
  </energy>
  <time name="totalsc">   21.27   21.32</time>
 </calculation>
  <time name="totalsc">   21.27   21.32</time>
 </ca   <time name="dav">    2.00    2.00</time>
   <time name="total">    2.14    2.14</time>
   <energy>
    <   <time name="total">       <time name="total">       <time name="total">    2.20    2.20</time>
   <energy>
    <i name="alphaZ">    339.17529174 </i>
    <i name="ewald">  -3304.80674597 </i>
    <i name="hartreedc">   -498.24846109 </i>
    <i name="XCdc">   -117.54874726 </i>
    <i name="pawpsdc">   2795.67302633 </i>
    <i name="pawaedc">  -2552.22403115 </i>
    <i name="eentropy">     -0.00046769 </i>
    <i name="bandstr">     57.98563660 </i>
    <i name="atom">   3255.60777830 </i>
    <i name="e_fr_energy">    -24.38672019 </i>
    <i name="e_   <time name="dav">    2.69    2.70</time>
   <time name="tota   <time name="dav">    2.79    2.80</time>
   <time name="total">    2.93    2.94</time>
   <energy>
    <i name="e_fr_energy">    -24.29871033 </i>
    <i name="e_wo_entrp">    -24.29837191 </i>
    <i name="e_0_ene   <time name="dav">    2.25    2.25</time>
   <time name="total">    2.39    2.40</time>
   <energy>
    <   <time name="total">    2.33    2.33</time>
   <energy>
    <i name="e_fr_energy">    -24.29788830 </i>
    <i name="e_wo_entrp">    -24.29754787 </i>
    <i name="e_0_ene   <time name="dav">    2.80    2.80</time>
   <time name="total">    2.94    2.94</time>
   <energy>
    <   <time name="total">    2.96    2.97</time>
   <energy>
    <i name="e_fr_energy">    -24.29760495 </i>
    <i name="e_wo_entrp">    -24.29726553 </i>
    <i name="e_0_ene   <time name="dav">    2.55    2.56</time>
   <time name="total">    2.69    2.70</time>
   <energy>
    <   <time name="total">    2.67    2.68</time>
   <energy>
    <i name="e_fr_energy">    -24.29758303 </i>
    <i name="e_wo_entrp">    -24.29723948 </i>
    <i name="e_0_ene   <time name="dav">    2.74    2.75</time>
   <time name="total">    2.89    2.89</time>
   <energy>
    <i name="e_fr_energy">    -24.35700334 </i>
    <i name="e_wo_entrp">    -24.35650780 </i>
    <i name="e_0_energy">    -24.35675557 </i>
   </energy>
  </scstep>
  <scstep>
   <time name="dav">    1.37    1.37</time>
   <time name="total">    1.39    1.39</time>
   <energy>
    <i name="alphaZ">    341.37009634 </i>
    <i name="ewald">  -3315.36335861 </i>
    <i name="hartreedc">   -499.79627067 </i>
    <i name="XCdc">   -117.35044264 </i>
    <i name="pawpsdc">   2790.90515391 </i>
    <i name="pawaedc">  -2547.14186325 </i>
    <i name="eentropy">     -0.00049631 </i>
    <i name="bandstr">     67.41240229 </i>
    <i name="atom">   3255.60777830 </i>
    <i name="e_fr_energy">    -24.35700064 </i>
    <i name="e_wo_entrp">    -24.35650433 </i>
    <i name="e_0_energy">    -24.35675249 </i>
   </energy>
  </scstep>
  <structure>
   <crystal>
    <varray name="basis" >
     <v>       4.03180615       0.00000000       0.00000000 </v>
     <v>      -0.04666164       4.03169586       0.00000000 </v>
     <v>      -0.04666199      -0.04677324       4.03158586 </v>
    </varray>
    <i name="volume">     65.53349338 </i>
    <varray name="rec_basis" >
     <v>       0.24802780       0.00287060       0.00290400 </v>
     <v>       0.00000000       0.24803458       0.00287762 </v>
     <v>       0.00000000       0.00000000       0.24804135 </v>
    </varray>
   </crystal>
   <varray name="positions" >
    <v>       0.99224884       0.99224884       0.99224884 </v>
    <v>       0.98793987       0.49639947       0.49639947 </v>
    <v>       0.49639947       0.98793987       0.49639947 </v>
    <v>       0.49639947       0.49639947       0.98793987 </v>
    <v>       0.40875449       0.40875449       0.40875449 </v>
   </varray>
  </structure>
  <varray name="forces" >
   <v>       0.02079903       0.02104427       0.02129070 </v>
   <v>      -0.09964  <energy>
   <i name="e_fr_energy">    -24.40178794 </i>
   <i name="e_wo_entrp">    -24.40157209 </i>
   <i name="e_0_energy">     -0.00043171 </i>
  </energy>
  <time name="totalsc">   20.19   20.24</time>
 </calculation>
7 </v>
  </varray>
  <varray name="stress" >
   <v>      -4.39184782       1.49436955       1.51186903 </v>
   <v>       1.49436955      -4.35727699       1.52906443 </v>
   <v>       1.51186903       1.52906443      -4.32214339 </v>
  </varray>
  <energy>
   <i name="e_fr_energy">    -24.35700064 </i>
   <i name="e_wo   <i name="e_fr_energy">    -   <i name="e_0_e   <i name="e_wo_entrp">    -  </energy>
  <time name="totalsc">   20.19   20.24</time>
 </calculation>
  <time name="totalsc">   20.20   20.25</time>
 </ca  <time name="totalsc">      <time name="   <time name="dav">    2.04    <time name="   <time name="total">    2.18    2.19</time>
   <en   <time name="total">    2.20    2.21</time>
   <energy>
    <i name="alphaZ">    339.23462054 </i>
    <i name="ewald">  -3305.01874714 </i>
    <i name="hartreedc">   -504.65659075 </i>
    <i name="XCdc">   -117.35687878 </i>
    <i name="pawpsdc">   2791.36370412 </i>
    <i name="pawaedc">  -2547.73320536 </i>
    <i name="eentropy">     -0.00050361 </i>
    <i name="bandstr">     64.21876708 </i>
    <i name="atom">   3255.60777830 </i>
    <i name="e_fr_energy">    -24.34105560 </i>
    <i name="e_wo_entrp">    -24.34055199 </i>
    <i name="e_0   <time name="dav">    2.76    2.77</tim      <time name="total">    <time name="dav   <time name="total">       <time name="total">    3.02    3.03</time>
   <energy>
    <i name="e_fr_energy">    -24.34112235 </i>
    <i name="e_wo_entrp">    -24.34061821 </i>
    <i name="e_0   <time name="dav">    2.48    2.48</time>
   <time name="total">    2.62    2.62</time>
   <energy>
    <i name="e_fr_energy">    -24.35651391 </i>
    <i name="e_wo_entrp">    -24.35596563 </i>
    <i name="e_0_energy">    -24.35623977 </i>
   </energy>
  </scstep>
  <scstep>
   <time name="dav">    2.78    2.78</time>
   <time name="total">    2.92    2.93</time>
   <energy>
    <i name="e_fr_energy">    -24.35647247 </i>
    <i name="e_wo_entrp">    -24.35598566 </i>
    <i name="e_0_energy">    -24.35622906 </i>
   </energy>
  </scstep>
  <scstep>
   <time name="dav">    2.69    2.70</time>
   <time name="total">    2.83    2.84</time>
   <energy>
    <i name="e_fr_energy">    -24.35623977 </i>
    <i name="e_wo_entrp">    -24.35570440 </i>
    <i name="e_0_energy">    -24.35597209 </i>
   </energy>
  </scstep>
  <scstep>
   <time name="dav">    2.34    2.35</time>
   <time name="total">    2.48    2.49</time>
   <energy>
    <i name="e_fr_energy">    -24.35623352 </i>
    <i name="e_wo_entrp">    -24.35570073 </i>
    <i name="e_0_energy">    -24.35596712 </i>
   </energy>
  </scstep>
  <scstep>
   <time name="dav">    1.35    1.36</time>
   <time name="total">    1.37    1.38</time>
   <energy>
    <i name="alphaZ">    342.00859856 </i>
    <i name="ewald">  -3317.55480061 </i>
    <i name="hartreedc">   -498.81516273 </i>
    <i name="XCdc">   -117.33231616 </i>
    <i name="pawpsdc">   2791.39483490 </i>
    <i name="pawaedc">  -2547.67085737 </i>
    <i name="eentropy">     -0.00053334 </i>
    <i name="bandstr">     68.00622699 </i>
    <i name="atom">   3255.60777830 </i>
    <i name="e_fr_energy">    -24.35623148 </i>
    <i name="e_wo_entrp">    -24.35569814 </i>
    <i name="e_0_energy">    -24.35596481 </i>
   </energy>
  </scstep>
  <structure>
   <crystal>
    <varray name="basis" >
     <v>       4.02928567       0.00000000       0.00000000 </v>
     <v>      -0.04577488       4.02918537       0.00000000 </v>
     <v>      -0.04577515      -0.04587668       4.02908530 </v>
    </varray>
    <i name="volume">     65.41114768 </i>
    <varray name="rec_basis" >
     <v>       0.24818295       0.00281956       0.00285176 </v>
     <v>       0.00000000       0.24818913       0.00282597 </v>
     <v>       0.00000000       0.00000000       0.24819529 </v>
    </varray>
   </crystal>
   <varray name="positions" >
    <v>       0.99313110       0.99313110       0.99313110 </v>
    <v>       0.98582983       0.49660715       0.49660715 </v>
   <energy>
   <i name="e_fr_energy">    <i name="e_fr_ener   <i name="e_wo_entrp">     <i name="e_wo_ent   <i name="e_0_energy">     <i name="e_0_ener  </energy>
  <time name="totalsc">     <time name="totalsc">   20.22   20.27</time>
 </calculation>
       0.00351251       0.00355316       0.00359400 </v>
   <v>      -0.02081518      -0.04530269      -0.04582331 </v>
   <v>      -0.04505668      -0.02133409      -0.04582331 </v>
   <v>      -0.04505669      -0.04557560      -0.02185530 </v>
   <v>       0.10741604       0.10865  <energy>
   <i name="e_fr_energy">    -24.40186024 </i>
   <i name="e_wo_entrp">    -24.40164766 </i>
   <i name="e_0_energy">     -0.00042515 </i>
  </energy>
  <time name="totalsc">   20.22   20.27</time>
 </calculation>
15016      -1.52239631 </v>
  </varray>
  <energy>
   <i name="e_fr_energy">    -24.35623148 </i>
   <i name="e_wo_entrp">    -24.35596481 </i>
   <i name="e_0_energy">     -0.00053334 </i>
  </energy>
  <time name="totalsc">   20.22   20.27</time>
 </calculation>
 <calculation>
 <calculati   <time name="   <time name="   <time name=   <time name="   <time name="   <time name="   <time name="total">    2.22    2.23</time>
   <energy>
    <i name="alphaZ">    344.77818632 </i>
    <i name="ewald">  -3329.04702665 </i>
    <i name="hartreedc">   -494.18004257 </i>
    <i name="XCdc">   -117.28303888 </i>
    <i name="pawpsdc">   2790.30901514 </i>
    <i name="pawaedc">  -2546.53198026 </i>
    <i name="eentropy">     -0.00042554 </i>
    <i name="bandstr">     71.94544483 </i>
    <i name="atom">   3255.60777830 </i>
    <i name="e_fr_energy">    -24.40208930 </i>
    <i name="e_wo_entrp">    -24.40166376 </i>
    <i name="e_0_energy">    -24.40187   <time name="   <time name="dav">    2.90    2.91</time>
   <time name="total">    3.04    3.05</time>
   <energy>
    <i name="e_fr_energy">    -24.29863365 </i>
    <i name="e_wo_entrp">    -24.29831855 </i>
    <i name="e_0_energy">    -24.29847610 </i>
   </energy>
  </scst   <time name="   <time name="dav">    2.77    2.78</time>
   <time name="total">    2.91    2.92</time>
   <energy>
    <i name="e_fr_energy">    -24.29856319 </i>
    <i name="e_wo_entrp">    -24.29824338 </i>
    <i name="e_0_energy">    -24.29840329 </i>
   </energy>
  </scst   <time name="   <time name="dav">    2.53    2.54</time>
   <time name="total">    2.67    2.68</time>
   <energy>
    <i name="e_fr_energy">    -24.29852244 </i>
    <i name="e_wo_entrp">    -24.29820776 </i>
    <i name="e_0_energy">    -24.29836510 </i>
   </energy>
  </scst   <time name="dav">    2.45    2.45</time>
   <time name="total">    2.59    2.60</time>
   <energy>
    <i name="e_fr_energy">    -24.35517095 </i>
    <i name="e_wo_entrp">    -24.35463559 </i>
    <i name="e_0_energy">    -24.35490327 </i>
   </energy>
  </scstep>
  <scstep>
   <time name="dav">    1.95    1.96</time>
   <time name="total">    1.97    1.98</time>
   <energy>
    <i name="alphaZ">    342.61841718 </i>
    <i name="ewald">  -3319.56603972 </i>
    <i name="hartreedc">   -497.91655365 </i>
    <i name="XCdc">   -117.30954376 </i>
    <i name="pawpsdc">   2792.04563757 </i>
    <i name="pawaedc">  -2548.35748034 </i>
    <i name="eentropy">     -0.00053114 </i>
    <i name="bandstr">     68.52314690 </i>
    <i name="atom">   3255.60777830 </i>
    <i name="e_fr_energy">    -24.35516867 </i>
    <i name="e_wo_entrp">    -24.35463753 </i>
    <i name="e_0_energy">    -24.35490310 </i>
   </energy>
  </scstep>
  <structure>
   <crystal>
    <varray name="basis" >
     <v>       4.02687092       0.00000000       0.00000000 </v>
     <v>      -0.04375877       4.02679350       0.00000000 </v>
     <v>      -0.04375888      -0.04383799       4.02671621 </v>
    </varray>
    <i name="volume">     65.29472389 </i>
    <varray name="rec_basis" >
     <v>       0.24833177       0.00269860       0.00272803 </v>
     <v>       0.00000000       0.24833655       0.00270359 </v>
     <v>       0.00000000       0.00000000       0.24834132 </v>
    </varray>
   </crystal>
   <varray name="positions" >
    <v>       0.99389423       0.99389423       0.99389423 </v>
    <v>       0.98482107       0.49564723       0.49564723 </v>
    <  <energy>
   <i name="e_fr_energy">    -24.40192037 </i>
   <i name="e_wo_entrp">    -24.40170781 </i>
   <i name="e_0_energy">     -0.00042512 </i>
  </energy>
  <time name="totalsc">   17.94   17.98</time>
 </calculation>
name="forces" >
   <v>      -0.04244339   <energy>
   <i name="e_fr_energy">    -24.34209361 </i>
   <i name="e_wo_entrp">    -24.34184624 </i>
   <i name="e_0_energy">     -0.00049473 </i>
  </energy>
  <time name="totalsc">   17.95   17.99</time>
 </calculation>
v>
   <v>       0.11435801       0.11562377       0.11689413 </v>
  </varray>
  <varray name="stress" >
   <v>       1.44349342       0.76812176       0.77656109 </v>
   <v>       0.76812176       1.46045854       0.78522443 </v>
   <v>       0.77656109       0.78522443       1.47767408 </v>
  </varray>
  <energy>
   <i name="e_f   <i name="e_fr_energy">    -24   <i name="e_w   <i name="e_wo_entrp">    -24   <i name="e_0   <i name="e_0_energy">     -0  </energy>
  <time name="t  <time name="totalsc">   17.94   17.98</time>
 </calculation>
  <scstep>
   <time name="dav">    2.   <time name="dav   <time name="total">       <time name="total">       <time name="total">       <time name="total">    2.20    2.20</time>
   <energy>
    <i name="alphaZ">    339.50006589 </i>
    <i name="ewald">  -3305.92993798 </i>
    <i name="hartreedc">   -504.25106450 </i>
    <i name="XCdc">   -117.34314462 </i>
    <i name="pawpsdc">   2791.38707469 </i>
    <i name="pawaedc">  -2547.77690095 </i>
    <i name="eentropy">     -0.00048277 </i>
    <i name="bandstr">     64.46365050 </i>
    <i name="atom">   3255.60777830 </i>
    <i name="e_fr_energy">    -24.34296143 </i>
    <i name="e_wo_entrp">    -24.34247866 </i>
    <   <time name="dav">    2.   <time name="dav">    2.89    2.90</time>
   <time name="total">    3.03    3.04</time>
   <en   <time name="total">    3.03    3.04</time>
   <energy>
    <i name="e_fr_energy">    -24.34329726 </i>
    <i name="e_wo_entrp">    -24.34281380 </i>
    <   <time name="dav">    1.   <time name="dav">    2.35    2.36</time>
   <time   <time name="dav">    2.50    2.50</time>
   <time name="total">    2.64    2.65</time>
   <energy>
    <i name="e_fr_energy">    -24.34325223 </i>
    <i name="e_wo_entrp">    -24.34277178 </i>
    <i name="e_0_energy">    -2   <time name="dav">    2.60    2.60</time>
   <time name="total">    2.74    2.74</time>
   <energy>
    <i name="e_fr_energy">    -24.29867272 </i>
    <i name="e_wo_entrp">    -24.29838194 </i>
    <i name="e_0_energy">    -24.29852733 </i>
   </energy>
  </scstep>
  <scstep>
   <time name="dav">    1.95    1.96</time>
   <time name="total">    2.09    2.10</time>
   <energy>
    <i name="e_fr_energy">    -24.29865144 </i>
    <i name="e_wo_entrp">    -24.29835744 </i>
    <i name="e_0_energy">    -24.29850444 </i>
   </energy>
  </scstep>
  <scstep>
   <time name="dav">    1.32    1.32</time>
   <time name="total">    1.34    1.34</time>
   <energy>
    <i name="alphaZ">    340.05127628 </i>
    <i name="ewald">  -3308.76560526 </i>
    <i name="hartreedc">   -502.82635177 </i>
    <i name="XCdc">   -117.34830420 </i>
    <i name="pawpsdc">   2792.71741443 </i>
    <i name="pawaedc">  -2549.04959412 </i>
    <i name="eentropy">     -0.00029350 </i>
    <i name="bandstr">     65.31502772 </i>
    <i name="atom">   3255.60777830 </i>
    <i name="e_fr_energy">    -24.29865213 </i>
    <i name="e_wo_entrp">    -24.29835863 </i>
    <i name="e_0_energy">    -24.29850538 </i>
   </energy>
  </scstep>
  <structure>
   <crystal>
    <varray name="basis" >
     <v>       4.03754803       0.00000000       0.00000000 </v>
     <v>      -0.08150858       4.03690094       0.00000000 </v>
     <v>      -0.08151252      -0.08215007       4.03625495 </v>
    </varray>
    <i name="volume">     65.78765178 </i>
    <varray name="rec_basis" >
     <v>       0.24767507       0.00500078       0.00510360 </v>
     <v>       0.00000000       0.24771477       0.00504175 </v>
     <v>       0.00000000       0.00000000       0.24775442 </v>
    </varray>
   </crystal>
   <varray name="positions" >
    <v>       0.99887955       0.99887955       0.99887955 </v  <energy>
   <i name="e_fr_energy">    -24.35531416 </i>
   <i name="e_wo_entrp">    -24.35505098 </i>
   <i name="e_0_energy">     -0.00052636 </i>
  </energy>
  <time name="totalsc">   16.94   16.98</time>
 </ca  <time name="totalsc">   16.95   16.99</time>
 </calculation>
ructure>
  <varray name="forces" >
   <v>       0.00051446       0.00052511       0.00053594 </v>
   <v>      -0.00386545      -0.01393324      -0.01422039 </v>
   <v>      -0.01384813      -0.00414966      -0.01422039 </v>
   <v>      -0.01384814      -0.01413233      -0.00443838 </v>
   <v>       0.03104727       0.03169012       0.03234322 </v>
  </varray>
  <varray name="stress" >
   <v>       0.95464758      -1.12672069      -1.14994346 </v>
   <v>      -1.12672069       0.90864160      -1.17322891 </v>
   <v>      -1.14994346      -1.17322891       0.86096508 </v>
  </varray>
  <energy>
   <i name="e_fr_energy">    -24.29865213 </i>
   <i name="e_wo_entrp">    -24.29850538 </i>
   <i name="e_0_energy">     -0.00029350 </i>
  </energy>
  <time name="totalsc">   16.93   16.98</time>
 </ca  <time name="totalsc">   16.93   16.   <time name="dav">    2.09    2.09</time>
   <time name="total">    2.23    2.23</time>
   <en   <time name="   <time name="total">    2.25    <energy>
      <energy>
    <i name="alphaZ">    342.33609997 </i>
    <i name="ewald">  -3318.66273894 </i>
    <i name="hartreedc">   -498.01604071 </i>
    <i name="XCdc">   -117.32888203 </i>
[...]
       <r>    3.5786    1.0000 </r>
       <r>    3.7453    1.0000 </r>
       <r>    3.8960    1.0000 </r>
       <r>    3.9554    1.0000 </r>
       <r>    3.9791    1.0000 </r>
       <r>    5.1934    0.0000 </r>
       <r>    6.0655    0.0000 </r>
       <r>    6.1887    0.0000 </r>
       <r>    9.7081    0.0000 </r>
      </set>
      <set comment="kpoint 114">
       <r>   -3.4465    1.0000 </r>
       <r>   -0.5056    1.0000 </r>
       <r>   -0.5034    1.0000 </r>
       <r>   -0.4812    1.0000 </r>
       <r>    1.2277    1.0000 </r>
       <r>    1.2887    1.0000 </r>
       <r>    1.3325    1.0000 </r>
       <r>    1.3643    1.0000 </r>
       <r>    1.4207    1.0000 </r>
       <r>    1.4950    1.0000 </r>
       <r>    1.7091    1.0000 </r>
       <r>    1.7532    1.0000 </r>
       <r>    2.5294    1.0000 </r>
       <r>    3.4294    1.0000 </r>
       <r>    3.5437    1.0000 </r>
       <r>    3.6663    1.0000 </r>
       <r>    3.6949    1.0000 </r>
       <r>    3.7890    1.0000 </r>
       <r>    3.8674    1.0000 </r>
       <r>    3.9520    1.0000 </r>
       <r>    4.1790    0.0000 </r>
       <r>    5.2768    0.0000 </r>
       <r>    5.3557    0.0000 </r>
       <r>    5.4817    0.0000 </r>
       <r>    9.5983    0.0000 </r>
      </set>
      <set comment="kpoint 115">
       <r>   -3.4042    1.0000 </r>
       <r>   -0.4906    1.0000 </r>
       <r>   -0.4488    1.0000 </r>
       <r>   -0.4012    1.0000 </r>
       <r>    1.1366    1.0000 </r>
       <r>    1.2691    1.0000 </r>
       <r>    1.2855    1.0000 </r>
       <r>    1.3934    1.0000 </r>
       <r>    1.4425    1.0000 </r>
       <r>    1.5028    1.0000 </r>
       <r>    1.7683    1.0000 </r>
       <r>    1.8317    1.0000 </r>
       <r>    2.2216    1.0000 </r>
       <r>    3.1230    1.0000 </r>
       <r>    3.2341    1.0000 </r>
       <r>    3.3675    1.0000 </r>
       <r>    3.8014    1.0000 </r>
       <r>    3.8891    1.0000 </r>
       <r>    3.9275    1.0000 </r>
       <r>    3.9342    1.0000 </r>
       <r>    4.1759    0.0000 </r>
       <r>    4.8339    0.0000 </r>
       <r>    5.7044    0.0000 </r>
       <r>    6.1853    0.0000 </r>
       <r>    9.5668    0.0000 </r>
      </set>
      <set comment="kpoint 116">
       <r>   -3.4805    1.0000 </r>
       <r>   -0.5649    1.0000 </r>
       <r>   -0.5648    1.0000 </r>
       <r>   -0.5420    1.0000 </r>
       <r>    1.2625    1.0000 </r>
       <r>    1.2634    1.0000 </r>
       <r>    1.3239    1.0000 </r>
       <r>    1.3837    1.0000 </r>
       <r>    1.3843    1.0000 </r>
       <r>    1.4696    1.0000 </r>
       <r>    1.7216    1.0000 </r>
       <r>    1.7225    1.0000 </r>
       <r>    2.9399    1.0000 </r>
       <r>    3.6912    1.0000 </r>
       <r>    3.6912    1.0000 </r>
       <r>    3.7963    1.0000 </r>
       <r>    3.9106    1.0000 </r>
       <r>    3.9521    1.0000 </r>
       <r>    3.9523    1.0000 </r>
       <r>    3.9961    0.9949 </r>
       <r>    3.9964    0.9942 </r>
       <r>    5.1283    0.0000 </r>
       <r>    5.1292    0.0000 </r>
       <r>    5.2565    0.0000 </r>
       <r>    9.4361    0.0000 </r>
      </set>
     </set>
    </set>
   </array>
  </eigenvalues>
  <separator name="orbital magnetization" >
   <v name="MAGDIPOLOUT">      0.00000000      0.00000000      0.00000000</v>
  </separator>
  <dos>
   <i name="efermi">      4.01421153 </i>
   <total>
    <array>
     <dimension dim="1">gridpoints</dimension>
     <dimension dim="2">spin</dimension>
     <field>energy</field>
     <field>total</field>
     <field>integrated</field>
     <set>
      <set comment="spin 1">
       <r>    -5.1181     0.0000     0.0000 </r>
       <r>    -5.0536     0.0000     0.0000 </r>
       <r>    -4.9892     0.0000     0.0000 </r>
       <r>    -4.9248     0.0000     0.0000 </r>
       <r>    -4.8604     0.0000     0.0000 </r>
       <r>    -4.7959     0.0000     0.0000 </r>
       <r>    -4.7315     0.0000     0.0000 </r>
       <r>    -4.6671     0.0000     0.0000 </r>
       <r>    -4.6026     0.0000     0.0000 </r>
       <r>    -4.5382     0.0000     0.0000 </r>
       <r>    -4.4738     0.0000     0.0000 </r>
       <r>    -4.4094     0.0000     0.0000 </r>
       <r>    -4.3449     0.0000     0.0000 </r>
       <r>    -4.2805     0.0000     0.0000 </r>
       <r>    -4.2161     0.0310     0.0020 </r>
       <r>    -4.1517     0.1825     0.0138 </r>
       <r>    -4.0872     0.3142     0.0340 </r>
       <r>    -4.0228     0.2236     0.0484 </r>
       <r>    -3.9584     0.2162     0.0623 </r>
       <r>    -3.8939     0.5430     0.0973 </r>
       <r>    -3.8295     0.8408     0.1517 </r>
       <r>    -3.7651     0.1676     0.1625 </r>
       <r>    -3.7007     0.5444     0.1975 </r>
       <r>    -3.6362     1.1569     0.2721 </r>
       <r>    -3.5718     0.9865     0.3356 </r>
       <r>    -3.5074     1.1053     0.4068 </r>
       <r>    -3.4430     1.7460     0.5193 </r>
       <r>    -3.3785     2.1929     0.6606 </r>
       <r>    -3.3141     4.1668     0.9291 </r>
       <r>    -3.2497     6.1997     1.3285 </r>
       <r>    -3.1852     5.8759     1.7073 </r>
       <r>    -3.1208     3.2744     1.9186 </r>
       <r>    -3.0564     1.2378     1.9985 </r>
       <r>    -2.9920     0.0237     2.0000 </r>
       <r>    -2.9275     0.0000     2.0000 </r>
       <r>    -2.8631     0.0000     2.0000 </r>
       <r>    -2.7987     0.0000     2.0000 </r>
       <r>    -2.7343     0.0000     2.0000 </r>
       <r>    -2.6698     0.0000     2.0000 </r>
       <r>    -2.6054     0.0000     2.0000 </r>
       <r>    -2.5410     0.0000     2.0000 </r>
       <r>    -2.4766     0.0000     2.0000 </r>
       <r>    -2.4121     0.0000     2.0000 </r>
       <r>    -2.3477     0.0000     2.0000 </r>
       <r>    -2.2833     0.0000     2.0000 </r>
       <r>    -2.2188     0.0000     2.0000 </r>
       <r>    -2.1544     0.0000     2.0000 </r>
       <r>    -2.0900     0.0000     2.0000 </r>
       <r>    -2.0256     0.0000     2.0000 </r>
       <r>    -1.9611     0.0000     2.0000 </r>
       <r>    -1.8967     0.0000     2.0000 </r>
       <r>    -1.8323     0.0000     2.0000 </r>
       <r>    -1.7679     0.0000     2.0000 </r>
       <r>    -1.7034     0.0000     2.0000 </r>
       <r>    -1.6390     0.0000     2.0000 </r>
       <r>    -1.5746     0.0000     2.0000 </r>
       <r>    -1.5101     0.0000     2.0000 </r>
       <r>    -1.4457     0.0000     2.0000 </r>
       <r>    -1.3813     0.0000     2.0000 </r>
       <r>    -1.3169     0.0000     2.0000 </r>
       <r>    -1.2524     0.0300     2.0019 </r>
       <r>    -1.1880     0.1865     2.0139 </r>
       <r>    -1.1236     0.3719     2.0380 </r>
       <r>    -1.0592     0.2489     2.0540 </r>
       <r>    -0.9947     0.2872     2.0725 </r>
       <r>    -0.9303     0.8394     2.1266 </r>
       <r>    -0.8659     0.5496     2.1620 </r>
       <r>    -0.8014     0.1866     2.1740 </r>
       <r>    -0.7370     1.1317     2.2470 </r>
       <r>    -0.6726     1.0927     2.3174 </r>
       <r>    -0.6082     1.2583     2.3984 </r>
       <r>    -0.5437     1.0660     2.4671 </r>
       <r>    -0.4793     4.2439     2.7405 </r>
       <r>    -0.4149     3.9559     2.9957 </r>
       <r>    -0.3505     4.2013     3.2667 </r>
       <r>    -0.2860     6.1301     3.6618 </r>
       <r>    -0.2216     6.8150     4.1009 </r>
       <r>    -0.1572     8.1032     4.6231 </r>
       <r>    -0.0927     7.2710     5.0919 </r>
       <r>    -0.0283     6.5038     5.5114 </r>
       <r>     0.0361     9.7969     6.1429 </r>
       <r>     0.1005     9.2649     6.7405 </r>
       <r>     0.1650     8.5472     7.2917 </r>
       <r>     0.2294     9.2359     7.8868 </r>
       <r>     0.2938     8.0208     8.4036 </r>
       <r>     0.3582     8.5821     8.9571 </r>
       <r>     0.4227     9.7549     9.5858 </r>
       <r>     0.4871     8.2909    10.1202 </r>
       <r>     0.5515     5.0761    10.4474 </r>
       <r>     0.6160     7.6064    10.9374 </r>
       <r>     0.6804     6.3678    11.3477 </r>
       <r>     0.7448     8.8768    11.9197 </r>
       <r>     0.8092     7.8288    12.4243 </r>
       <r>     0.8737     8.7921    12.9908 </r>
       <r>     0.9381     8.0336    13.5091 </r>
       <r>     1.0025     7.7821    14.0110 </r>
       <r>     1.0669     8.5835    14.5642 </r>
       <r>     1.1314     6.6275    14.9912 </r>
       <r>     1.1958     7.6218    15.4823 </r>
       <r>     1.2602     8.8203    16.0506 </r>
       <r>     1.3246     8.0961    16.5724 </r>
       <r>     1.3891     7.6969    17.0684 </r>
       <r>     1.4535     7.0592    17.5233 </r>
       <r>     1.5179     9.2382    18.1185 </r>
       <r>     1.5824    12.1389    18.9006 </r>
       <r>     1.6468    11.1257    19.6176 </r>
       <r>     1.7112    11.7805    20.3766 </r>
       <r>     1.7756    13.1327    21.2233 </r>
       <r>     1.8401    10.9646    21.9299 </r>
       <r>     1.9045    11.7847    22.6895 </r>
       <r>     1.9689     8.6393    23.2464 </r>
       <r>     2.0333     7.5299    23.7320 </r>
       <r>     2.0978     8.6391    24.2887 </r>
       <r>     2.1622     8.3070    24.8245 </r>
       <r>     2.2266     8.5814    25.3777 </r>
       <r>     2.2911     9.3665    25.9815 </r>
       <r>     2.3555     6.3360    26.3899 </r>
       <r>     2.4199     6.8747    26.8331 </r>
       <r>     2.4843     8.3031    27.3683 </r>
       <r>     2.5488     7.5746    27.8564 </r>
       <r>     2.6132     8.3745    28.3963 </r>
       <r>     2.6776    10.6525    29.0834 </r>
       <r>     2.7420     6.6669    29.5135 </r>
       <r>     2.8065     6.7640    29.9494 </r>
       <r>     2.8709    10.8630    30.6493 </r>
       <r>     2.9353     9.7883    31.2802 </r>
       <r>     2.9998     7.6391    31.7725 </r>
       <r>     3.0642     7.1976    32.2363 </r>
       <r>     3.1286     9.3990    32.8419 </r>
       <r>     3.1930     5.9261    33.2237 </r>
       <r>     3.2575     9.0790    33.8088 </r>
       <r>     3.3219     6.3607    34.2188 </r>
       <r>     3.3863     6.7056    34.6510 </r>
       <r>     3.4507     8.3621    35.1899 </r>
       <r>     3.5152     7.7939    35.6921 </r>
       <r>     3.5796     9.9061    36.3305 </r>
       <r>     3.6440     8.3221    36.8669 </r>
       <r>     3.7085     8.1272    37.3906 </r>
       <r>     3.7729    12.9819    38.2273 </r>
       <r>     3.8373    14.1907    39.1418 </r>
       <r>     3.9017    12.9518    39.9768 </r>
       <r>     3.9662     9.7593    40.6058 </r>
       <r>     4.0306     8.6279    41.1618 </r>
       <r>     4.0950     6.0704    41.5531 </r>
       <r>     4.1594     3.4346    41.7745 </r>
       <r>     4.2239     2.4899    41.9350 </r>
       <r>     4.2883     2.0329    42.0660 </r>
       <r>     4.3527     0.8685    42.1220 </r>
       <r>     4.4172     1.1387    42.1954 </r>
       <r>     4.4816     2.0098    42.3249 </r>
       <r>     4.5460     1.9375    42.4497 </r>
       <r>     4.6104     1.0887    42.5199 </r>
       <r>     4.6749     0.9120    42.5786 </r>
       <r>     4.7393     0.5092    42.6115 </r>
       <r>     4.8037     0.9717    42.6741 </r>
       <r>     4.8681     0.8422    42.7283 </r>
       <r>     4.9326     1.0702    42.7973 </r>
       <r>     4.9970     1.8992    42.9196 </r>
       <r>     5.0614     1.6000    43.0227 </r>
       <r>     5.1258     0.7688    43.0723 </r>
       <r>     5.1903     2.4286    43.2288 </r>
       <r>     5.2547     2.2474    43.3736 </r>
       <r>     5.3191     1.2256    43.4528 </r>
       <r>     5.3836     1.5554    43.5530 </r>
       <r>     5.4480     0.1155    43.5604 </r>
       <r>     5.5124     1.9600    43.6867 </r>
       <r>     5.5768     1.4078    43.7774 </r>
       <r>     5.6413     0.2024    43.7905 </r>
       <r>     5.7057     1.3665    43.8787 </r>
       <r>     5.7701     0.8503    43.9336 </r>
       <r>     5.8345     1.1851    44.0100 </r>
       <r>     5.8990     1.7016    44.1196 </r>
       <r>     5.9634     0.4777    44.1504 </r>
       <r>     6.0278     0.9856    44.2139 </r>
       <r>     6.0923     0.4180    44.2410 </r>
       <r>     6.1567     1.0254    44.3070 </r>
       <r>     6.2211     2.0887    44.4416 </r>
       <r>     6.2855     0.4056    44.4680 </r>
       <r>     6.3500     0.0092    44.4686 </r>
       <r>     6.4144     0.7377    44.5161 </r>
       <r>     6.4788     0.9294    44.5760 </r>
       <r>     6.5432     0.7625    44.6251 </r>
       <r>     6.6077     0.7224    44.6720 </r>
       <r>     6.6721     0.9937    44.7360 </r>
       <r>     6.7365     0.9835    44.7994 </r>
       <r>     6.8010     0.9200    44.8587 </r>
       <r>     6.8654     1.4328    44.9510 </r>
       <r>     6.9298     0.9850    45.0144 </r>
       <r>     6.9942     2.6660    45.1862 </r>
       <r>     7.0587     1.3314    45.2720 </r>
       <r>     7.1231     1.4601    45.3661 </r>
       <r>     7.1875     0.8911    45.4235 </r>
       <r>     7.2519     1.7632    45.5371 </r>
       <r>     7.3164     1.2696    45.6189 </r>
       <r>     7.3808     0.7119    45.6648 </r>
       <r>     7.4452     2.0490    45.7968 </r>
       <r>     7.5097     1.0499    45.8644 </r>
       <r>     7.5741     1.1059    45.9357 </r>
       <r>     7.6385     0.0056    45.9360 </r>
       <r>     7.7029     0.5536    45.9717 </r>
       <r>     7.7674     1.2613    46.0530 </r>
       <r>     7.8318     1.1175    46.1252 </r>
       <r>     7.8962     1.3401    46.2115 </r>
       <r>     7.9606     1.0171    46.2771 </r>
       <r>     8.0251     0.6170    46.3168 </r>
       <r>     8.0895     0.7956    46.3681 </r>
       <r>     8.1539     1.9001    46.4905 </r>
       <r>     8.2184     1.0769    46.5599 </r>
       <r>     8.2828     1.6390    46.6656 </r>
       <r>     8.3472     0.7817    46.7160 </r>
       <r>     8.4116     0.5242    46.7498 </r>
       <r>     8.4761     0.4070    46.7760 </r>
       <r>     8.5405     1.4505    46.8695 </r>
       <r>     8.6049     1.2561    46.9505 </r>
       <r>     8.6693     0.7151    46.9966 </r>
       <r>     8.7338     0.8943    47.0542 </r>
       <r>     8.7982     0.7089    47.0999 </r>
       <r>     8.8626     0.3680    47.1237 </r>
       <r>     8.9270     0.1010    47.1305 </r>
       <r>     8.9915     1.7321    47.2421 </r>
       <r>     9.0559     0.2156    47.2560 </r>
       <r>     9.1203     0.5574    47.2919 </r>
       <r>     9.1848     0.6149    47.3316 </r>
       <r>     9.2492     0.6438    47.3731 </r>
       <r>     9.3136     0.8169    47.4257 </r>
       <r>     9.3780     0.5130    47.4588 </r>
       <r>     9.4425     0.6949    47.5036 </r>
       <r>     9.5069     0.6453    47.5452 </r>
       <r>     9.5713     0.7474    47.5935 </r>
       <r>     9.6357     1.2781    47.6758 </r>
       <r>     9.7002     0.9550    47.7374 </r>
       <r>     9.7646     1.2146    47.8156 </r>
       <r>     9.8290     0.9902    47.8794 </r>
       <r>     9.8935     0.9391    47.9400 </r>
       <r>     9.9579     0.9240    47.9995 </r>
       <r>    10.0223     1.3131    48.0841 </r>
       <r>    10.0867     1.1080    48.1555 </r>
       <r>    10.1512     0.9642    48.2176 </r>
       <r>    10.2156     0.1609    48.2280 </r>
       <r>    10.2800     0.9552    48.2896 </r>
       <r>    10.3444     1.0872    48.3596 </r>
       <r>    10.4089     0.5497    48.3950 </r>
       <r>    10.4733     0.9434    48.4558 </r>
       <r>    10.5377     0.8167    48.5086 </r>
       <r>    10.6022     1.4325    48.6009 </r>
       <r>    10.6666     1.0655    48.6696 </r>
       <r>    10.7310     1.3519    48.7567 </r>
       <r>    10.7954     0.3963    48.7825 </r>
       <r>    10.8599     1.1110    48.8541 </r>
       <r>    10.9243     0.9604    48.9160 </r>
       <r>    10.9887     0.7402    48.9637 </r>
       <r>    11.0531     0.3773    48.9880 </r>
       <r>    11.1176     1.0885    49.0581 </r>
       <r>    11.1820     0.8930    49.1157 </r>
       <r>    11.2464     0.9755    49.1785 </r>
       <r>    11.3109     1.6261    49.2833 </r>
       <r>    11.3753     0.7587    49.3323 </r>
       <r>    11.4397     0.8029    49.3840 </r>
       <r>    11.5041     0.3725    49.4080 </r>
       <r>    11.5686     0.0129    49.4088 </r>
       <r>    11.6330     1.4834    49.5044 </r>
       <r>    11.6974     0.0866    49.5100 </r>
       <r>    11.7618     0.0009    49.5101 </r>
       <r>    11.8263     0.3803    49.5346 </r>
       <r>    11.8907     0.5929    49.5728 </r>
       <r>    11.9551     0.0613    49.5767 </r>
       <r>    12.0196     0.5165    49.6100 </r>
       <r>    12.0840     0.6448    49.6515 </r>
       <r>    12.1484     0.3614    49.6748 </r>
       <r>    12.2128     0.9495    49.7360 </r>
       <r>    12.2773     1.1175    49.8080 </r>
       <r>    12.3417     0.1861    49.8200 </r>
       <r>    12.4061     0.0231    49.8215 </r>
       <r>    12.4705     0.0701    49.8260 </r>
       <r>    12.5350     0.0000    49.8260 </r>
       <r>    12.5994     0.1790    49.8375 </r>
       <r>    12.6638     0.0073    49.8380 </r>
       <r>    12.7282     0.0777    49.8430 </r>
       <r>    12.7927     0.4809    49.8740 </r>
       <r>    12.8571     0.0000    49.8740 </r>
       <r>    12.9215     0.0240    49.8755 </r>
       <r>    12.9860     0.1941    49.8881 </r>
       <r>    13.0504     1.0380    49.9549 </r>
       <r>    13.1148     0.1634    49.9656 </r>
       <r>    13.1792     0.2834    49.9839 </r>
       <r>    13.2437     0.0640    49.9880 </r>
       <r>    13.3081     0.0001    49.9880 </r>
       <r>    13.3725     0.1862    50.0000 </r>
       <r>    13.4369     0.0000    50.0000 </r>
       <r>    13.5014     0.0000    50.0000 </r>
       <r>    13.5658     0.0000    50.0000 </r>
       <r>    13.6302     0.0000    50.0000 </r>
       <r>    13.6947     0.0000    50.0000 </r>
       <r>    13.7591     0.0000    50.0000 </r>
       <r>    13.8235     0.0000    50.0000 </r>
       <r>    13.8879     0.0000    50.0000 </r>
       <r>    13.9524     0.0000    50.0000 </r>
       <r>    14.0168     0.0000    50.0000 </r>
       <r>    14.0812     0.0000    50.0000 </r>
       <r>    14.1456     0.0000    50.0000 </r>
       <r>    14.2101     0.0000    50.0000 </r>
      </set>
     </set>
    </array>
   </total>
  </dos>
 </calculation>
 <structure name="finalpos" >
  <crystal>
   <varray name="basis" >
    <v>       4.03993608       0.00000000       0.00000000 </v>
    <v>      -0.08327507       4.03928394       0.00000000 </v>
    <v>      -0.08327877      -0.08392056       4.03863303 </v>
   </varray>
   <i name="volume">     65.90422676 </i>
   <varray name="rec_basis" >
    <v>       0.24752867       0.00510312       0.00521021 </v>
    <v>       0.00000000       0.24756863       0.00514434 </v>
    <v>       0.00000000       0.00000000       0.24760853 </v>
   </varray>
  </crystal>
  <varray name="positions" >
   <v>       1.00782908       1.00782908       1.00782908 </v>
   <v>       0.99550350       0.51499815       0.51499815 </v>
   <v>       0.51499815       0.99550350       0.51499815 </v>
   <v>       0.51499815       0.51499815       0.99550350 </v>
   <v>       0.30132837       0.30132837       0.30132837 </v>
  </varray>
 </structure>
</modeling>
2466       0.99062466 </v>
   <v>       0.98162425       0.49316877       0.49316877 </v>
   <v>       0.49316877       0.98162425       0.49316877 </v>
   <v>       0.49316877       0.49316877       0.98162425 </v>
   <v>       0.40030480       0.40030480       0.40030480 </v>
  </varray>
 </structure>
</modeling>
0.49148116 </v>
   <v>       0.49148116       0.98797219       0.49148116 </v>
   <v>       0.49148116       0.49148116       0.98797219 </v>
   <v>       0.45188886       0.45188886       0.45188886 </v>
  </varray>
 </structure>
</modeling>
