 running on   20 total cores
 each image running on    5 cores
 distrk:  each k-point on    5 cores,    1 groups
 distr:  one band on    1 cores,    5 groups
 vasp.5.4.1 05Feb16 (build Nov 22 2018 20:17:51) complex                        
  
 POSCAR found type information on POSCAR  Pd H 
 01/POSCAR found :  2 types and       5 ions
 scaLAPACK will be used

 ----------------------------------------------------------------------------- 
|                                                                             |
|           W    W    AA    RRRRR   N    N  II  N    N   GGGG   !!!           |
|           W    W   A  A   R    R  NN   N  II  NN   N  G    G  !!!           |
|           W    W  A    A  R    R  N N  N  II  N N  N  G       !!!           |
|           W WW W  AAAAAA  RRRRR   N  N N  II  N  N N  G  GGG   !            |
|           WW  WW  A    A  R   R   N   NN  II  N   NN  G    G                |
|           W    W  A    A  R    R  N    N  II  N    N   GGGG   !!!           |
|                                                                             |
|      For optimal performance we recommend to set                            |
|        NCORE= 4 - approx SQRT( number of cores)                             |
|      NCORE specifies how many cores store one orbital (NPAR=cpu/NCORE).     |
|      This setting can  greatly improve the performance of VASP for DFT.     |
|      The default, NPAR=number of cores might be grossly inefficient         |
|      on modern multi-core architectures or massively parallel machines.     |
|      Do your own testing !!!!                                               |
|      Unfortunately you need to use the default for GW and RPA calculations. |
|      (for HF NCORE is supported but not extensively tested yet)             |
|                                                                             |
 ----------------------------------------------------------------------------- 

 LDA part: xc-table for Ceperly-Alder, standard interpolation
 POSCAR found type information on POSCAR  Pd H 
 00/POSCAR found :  2 types and       5 ions
 POSCAR found type information on POSCAR  Pd H 
 05/POSCAR found :  2 types and       5 ions
 Jacobian:    5.26317925886129     
 POSCAR, INCAR and KPOINTS ok, starting setup
 WARNING: small aliasing (wrap around) errors must be expected
 FFT: planning ...
 WAVECAR not read
 entering main loop
       N       E                     dE             d eps       ncg     rms          rms(c)
DAV:   1     0.378985848482E+03    0.37899E+03   -0.19393E+04  5830   0.160E+03
DAV:   2    -0.506229609556E+01   -0.38405E+03   -0.36627E+03  5820   0.456E+02
DAV:   3    -0.244959037595E+02   -0.19434E+02   -0.17462E+02  6860   0.106E+02
DAV:   4    -0.250539377396E+02   -0.55803E+00   -0.55368E+00  6145   0.211E+01
DAV:   5    -0.250673274504E+02   -0.13390E-01   -0.13386E-01  6940   0.275E+00    0.601E+00
DAV:   6    -0.241931133094E+02    0.87421E+00   -0.33754E+00  6630   0.208E+01    0.162E+00
DAV:   7    -0.242762716446E+02   -0.83158E-01   -0.10138E+00  7765   0.160E+01    0.305E+00
DAV:   8    -0.241491617816E+02    0.12711E+00   -0.36284E-01  7965   0.107E+01    0.479E-01
DAV:   9    -0.241400136468E+02    0.91481E-02   -0.20494E-02  5975   0.137E+00    0.178E-01
DAV:  10    -0.241394365209E+02    0.57713E-03   -0.11796E-03  8445   0.436E-01    0.480E-02
DAV:  11    -0.241394818482E+02   -0.45327E-04   -0.78950E-05  6405   0.905E-02    0.180E-02
DAV:  12    -0.241394936332E+02   -0.11785E-04   -0.99645E-06  4105   0.402E-02    0.356E-03
DAV:  13    -0.241394947748E+02   -0.11416E-05   -0.26115E-06  3225   0.175E-02
   1 F= -.24139495E+02 E0= -.24139301E+02  d E =-.241395E+02
quench:  g(F)=  0.000E+00 g(S)=  0.000E+00 dE (1.order)= 0.000E+00
 bond charge predicted
       N       E                     dE             d eps       ncg     rms          rms(c)
DAV:   1    -0.241915785357E+02   -0.52085E-01   -0.20524E+00  5800   0.987E+00    0.593E-01
DAV:   2    -0.241910230371E+02    0.55550E-03   -0.12760E-01  7490   0.213E+00    0.221E-01
DAV:   3    -0.241901946043E+02    0.82843E-03   -0.71690E-03  7200   0.950E-01    0.164E-01
DAV:   4    -0.241900107624E+02    0.18384E-03   -0.19274E-03  8185   0.841E-01    0.125E-01
DAV:   5    -0.241897447292E+02    0.26603E-03   -0.68746E-04  8825   0.403E-01    0.295E-02
DAV:   6    -0.241897273094E+02    0.17420E-04   -0.63877E-05  6390   0.621E-02    0.696E-03
DAV:   7    -0.241897255028E+02    0.18066E-05   -0.45131E-06  3205   0.195E-02
   2 F= -.24189726E+02 E0= -.24189492E+02  d E =-.502307E-01
quench:  g(F)=  0.000E+00 g(S)=  0.000E+00 dE (1.order)= 0.000E+00
 bond charge predicted
       N       E                     dE             d eps       ncg     rms          rms(c)
DAV:   1    -0.242542018485E+02   -0.64475E-01   -0.93187E+00  5800   0.192E+01    0.674E-01
DAV:   2    -0.242813355937E+02   -0.27134E-01   -0.46958E-01  8825   0.399E+00    0.467E-01
DAV:   3    -0.242765890103E+02    0.47466E-02   -0.96468E-03  6790   0.763E-01    0.278E-01
DAV:   4    -0.242758364820E+02    0.75253E-03   -0.66779E-03  8945   0.984E-01    0.237E-01
DAV:   5    -0.242750139476E+02    0.82253E-03   -0.21098E-03  8650   0.807E-01    0.622E-02
DAV:   6    -0.242749501709E+02    0.63777E-04   -0.42614E-04  7880   0.157E-01    0.143E-02
DAV:   7    -0.242749417021E+02    0.84688E-05   -0.36613E-05  5215   0.453E-02
   3 F= -.24274942E+02 E0= -.24274667E+02  d E =-.852162E-01
quench:  g(F)=  0.000E+00 g(S)=  0.000E+00 dE (1.order)= 0.000E+00
 bond charge predicted
       N       E                     dE             d eps       ncg     rms          rms(c)
DAV:   1    -0.243151603042E+02   -0.40210E-01   -0.21301E+01  5800   0.274E+01    0.690E-01
DAV:   2    -0.243651033633E+02   -0.49943E-01   -0.71399E-01  8430   0.532E+00    0.472E-01
DAV:   3    -0.243612513619E+02    0.38520E-02   -0.16420E-02  6445   0.105E+00    0.313E-01
DAV:   4    -0.243604941403E+02    0.75722E-03   -0.19897E-03  8865   0.530E-01    0.247E-01
DAV:   5    -0.243591968687E+02    0.12973E-02   -0.48084E-03  8410   0.448E-01    0.565E-02
DAV:   6    -0.243591588541E+02    0.38015E-04   -0.15986E-04  7830   0.118E-01    0.190E-02
DAV:   7    -0.243591582603E+02    0.59377E-06   -0.42127E-05  5185   0.475E-02
   4 F= -.24359158E+02 E0= -.24358925E+02  d E =-.842166E-01
quench:  g(F)=  0.000E+00 g(S)=  0.000E+00 dE (1.order)= 0.000E+00
 bond charge predicted
       N       E                     dE             d eps       ncg     rms          rms(c)
DAV:   1    -0.243431850415E+02    0.15974E-01   -0.29190E+01  5800   0.321E+01    0.942E-01
DAV:   2    -0.244051888530E+02   -0.62004E-01   -0.98181E-01  7490   0.629E+00    0.540E-01
DAV:   3    -0.244020723708E+02    0.31165E-02   -0.41946E-02  6960   0.207E+00    0.406E-01
DAV:   4    -0.244005005862E+02    0.15718E-02   -0.55425E-03  8350   0.129E+00    0.305E-01
DAV:   5    -0.243985819715E+02    0.19186E-02   -0.69556E-03  8365   0.619E-01    0.675E-02
DAV:   6    -0.243985673338E+02    0.14638E-04   -0.20763E-04  6440   0.140E-01    0.413E-02
DAV:   7    -0.243985708580E+02   -0.35242E-05   -0.34198E-04  6435   0.992E-02    0.232E-02
DAV:   8    -0.243985570582E+02    0.13800E-04   -0.47713E-05  6000   0.465E-02    0.698E-03
DAV:   9    -0.243985565476E+02    0.51054E-06   -0.38200E-06  3050   0.133E-02
   5 F= -.24398557E+02 E0= -.24398337E+02  d E =-.393983E-01
quench:  g(F)=  0.000E+00 g(S)=  0.000E+00 dE (1.order)= 0.000E+00
 bond charge predicted
       N       E                     dE             d eps       ncg     rms          rms(c)
DAV:   1    -0.244094521960E+02   -0.10895E-01   -0.27927E+00  5800   0.116E+01    0.815E-01
DAV:   2    -0.244034937596E+02    0.59584E-02   -0.17659E-01  7680   0.294E+00    0.263E-01
DAV:   3    -0.244030496516E+02    0.44411E-03   -0.10516E-02  8170   0.141E+00    0.264E-01
DAV:   4    -0.244022012488E+02    0.84840E-03   -0.38523E-03  7950   0.113E+00    0.114E-01
DAV:   5    -0.244019924912E+02    0.20876E-03   -0.98342E-04  8770   0.288E-01    0.259E-02
DAV:   6    -0.244019968690E+02   -0.43779E-05   -0.36407E-05  6000   0.531E-02
   6 F= -.24401997E+02 E0= -.24401785E+02  d E =-.344032E-02
quench:  g(F)=  0.000E+00 g(S)=  0.000E+00 dE (1.order)= 0.000E+00
 bond charge predicted
       N       E                     dE             d eps       ncg     rms          rms(c)
DAV:   1    -0.243957301414E+02    0.62623E-02   -0.24625E+00  5800   0.932E+00    0.232E-01
DAV:   2    -0.244026417108E+02   -0.69116E-02   -0.86336E-02  8985   0.202E+00    0.221E-01
DAV:   3    -0.244019611407E+02    0.68057E-03   -0.21266E-03  8850   0.676E-01    0.144E-01
DAV:   4    -0.244017600080E+02    0.20113E-03   -0.50195E-04  8605   0.366E-01    0.111E-01
DAV:   5    -0.244014967205E+02    0.26329E-03   -0.86060E-04  8775   0.199E-01    0.303E-02
DAV:   6    -0.244014865732E+02    0.10147E-04   -0.13840E-04  8825   0.621E-02    0.110E-02
DAV:   7    -0.244014826957E+02    0.38776E-05   -0.10560E-05  3130   0.239E-02
   7 F= -.24401483E+02 E0= -.24401266E+02  d E =0.514173E-03
quench:  g(F)=  0.000E+00 g(S)=  0.000E+00 dE (1.order)= 0.000E+00
 bond charge predicted
       N       E                     dE             d eps       ncg     rms          rms(c)
DAV:   1    -0.244040211227E+02   -0.25345E-02   -0.49972E-02  5805   0.260E+00    0.296E-01
DAV:   2    -0.244018091544E+02    0.22120E-02   -0.90828E-03  5880   0.106E+00    0.351E-02
DAV:   3    -0.244018155086E+02   -0.63542E-05   -0.23084E-04  7600   0.212E-01    0.388E-02
DAV:   4    -0.244017957623E+02    0.19746E-04   -0.56209E-05  6375   0.139E-01    0.169E-02
DAV:   5    -0.244017879417E+02    0.78205E-05   -0.22865E-05  4600   0.423E-02
   8 F= -.24401788E+02 E0= -.24401572E+02  d E =-.305246E-03
quench:  g(F)=  0.000E+00 g(S)=  0.000E+00 dE (1.order)= 0.000E+00
 bond charge predicted
       N       E                     dE             d eps       ncg     rms          rms(c)
DAV:   1    -0.244041114194E+02   -0.23157E-02   -0.62430E-02  5805   0.270E+00    0.299E-01
DAV:   2    -0.244018854730E+02    0.22259E-02   -0.94850E-03  6195   0.106E+00    0.386E-02
DAV:   3    -0.244018880871E+02   -0.26141E-05   -0.29858E-04  8140   0.188E-01    0.363E-02
DAV:   4    -0.244018719323E+02    0.16155E-04   -0.52404E-05  6395   0.131E-01    0.208E-02
DAV:   5    -0.244018604331E+02    0.11499E-04   -0.36160E-05  4995   0.500E-02    0.454E-03
DAV:   6    -0.244018602353E+02    0.19780E-06   -0.52213E-06  2990   0.213E-02
   9 F= -.24401860E+02 E0= -.24401648E+02  d E =-.722935E-04
quench:  g(F)=  0.000E+00 g(S)=  0.000E+00 dE (1.order)= 0.000E+00
 bond charge predicted
       N       E                     dE             d eps       ncg     rms          rms(c)
DAV:   1    -0.244020892972E+02   -0.22886E-03   -0.10353E-02  5800   0.909E-01    0.888E-02
DAV:   2    -0.244019196035E+02    0.16969E-03   -0.10824E-03  7220   0.305E-01    0.127E-02
DAV:   3    -0.244019203681E+02   -0.76454E-06   -0.36331E-05  4880   0.593E-02
  10 F= -.24401920E+02 E0= -.24401708E+02  d E =-.601328E-04
quench:  g(F)=  0.000E+00 g(S)=  0.000E+00 dE (1.order)= 0.000E+00
 bond charge predicted
       N       E                     dE             d eps       ncg     rms          rms(c)
DAV:   1    -0.244024220230E+02   -0.50242E-03   -0.20183E-02  5800   0.141E+00    0.148E-01
DAV:   2    -0.244019005043E+02    0.52152E-03   -0.24993E-03  6450   0.514E-01    0.204E-02
DAV:   3    -0.244019019681E+02   -0.14638E-05   -0.72173E-05  6210   0.551E-02
  11 F= -.24401902E+02 E0= -.24401691E+02  d E =0.184000E-04
quench:  g(F)=  0.000E+00 g(S)=  0.000E+00 dE (1.order)= 0.000E+00
 bond charge predicted
       N       E                     dE             d eps       ncg     rms          rms(c)
DAV:   1    -0.244017970990E+02    0.10341E-03   -0.21294E-02  5800   0.900E-01    0.293E-02
DAV:   2    -0.244018416123E+02   -0.44513E-04   -0.64822E-04  9035   0.202E-01    0.245E-02
DAV:   3    -0.244018331750E+02    0.84373E-05   -0.30871E-05  4435   0.104E-01
  12 F= -.24401833E+02 E0= -.24401623E+02  d E =0.687931E-04
quench:  g(F)=  0.000E+00 g(S)=  0.000E+00 dE (1.order)= 0.000E+00
 bond charge predicted
       N       E                     dE             d eps       ncg     rms          rms(c)
DAV:   1    -0.244017033422E+02    0.13827E-03   -0.38767E-02  5800   0.121E+00    0.396E-02
DAV:   2    -0.244017835141E+02   -0.80172E-04   -0.12033E-03  8960   0.270E-01    0.292E-02
DAV:   3    -0.244017650220E+02    0.18492E-04   -0.20073E-05  3815   0.559E-02    0.204E-02
DAV:   4    -0.244017585706E+02    0.64514E-05   -0.30953E-05  3405   0.918E-02
  13 F= -.24401759E+02 E0= -.24401550E+02  d E =0.746044E-04
quench:  g(F)=  0.000E+00 g(S)=  0.000E+00 dE (1.order)= 0.000E+00
 bond charge predicted
       N       E                     dE             d eps       ncg     rms          rms(c)
DAV:   1    -0.244017008404E+02    0.64182E-04   -0.71090E-02  5800   0.175E+00    0.930E-02
DAV:   2    -0.244017672589E+02   -0.66418E-04   -0.35532E-03  7155   0.348E-01    0.354E-02
DAV:   3    -0.244017402860E+02    0.26973E-04   -0.11752E-04  6305   0.902E-02    0.190E-02
DAV:   4    -0.244017294423E+02    0.10844E-04   -0.40487E-05  5255   0.442E-02    0.639E-03
DAV:   5    -0.244017290357E+02    0.40664E-06   -0.51391E-06  3010   0.359E-02
  14 F= -.24401729E+02 E0= -.24401522E+02  d E =0.295349E-04
quench:  g(F)=  0.000E+00 g(S)=  0.000E+00 dE (1.order)= 0.000E+00
 bond charge predicted
       N       E                     dE             d eps       ncg     rms          rms(c)
DAV:   1    -0.244015911353E+02    0.13831E-03   -0.77605E-02  5800   0.167E+00    0.414E-02
DAV:   2    -0.244018194902E+02   -0.22835E-03   -0.27009E-03  8700   0.347E-01    0.369E-02
DAV:   3    -0.244017956877E+02    0.23803E-04   -0.28915E-05  4180   0.478E-02    0.252E-02
DAV:   4    -0.244017821299E+02    0.13558E-04   -0.47775E-05  5620   0.434E-02    0.113E-02
DAV:   5    -0.244017801306E+02    0.19993E-05   -0.38511E-06  2900   0.265E-02
  15 F= -.24401780E+02 E0= -.24401574E+02  d E =-.510949E-04
quench:  g(F)=  0.000E+00 g(S)=  0.000E+00 dE (1.order)= 0.000E+00
 bond charge predicted
       N       E                     dE             d eps       ncg     rms          rms(c)
DAV:   1    -0.244016555072E+02    0.12662E-03   -0.94150E-02  5800   0.192E+00    0.786E-02
DAV:   2    -0.244018958519E+02   -0.24034E-03   -0.43080E-03  8650   0.375E-01    0.459E-02
DAV:   3    -0.244018513318E+02    0.44520E-04   -0.77368E-05  6155   0.771E-02    0.253E-02
DAV:   4    -0.244018435111E+02    0.78207E-05   -0.54569E-05  6095   0.100E-01
  16 F= -.24401844E+02 E0= -.24401637E+02  d E =-.633805E-04
quench:  g(F)=  0.000E+00 g(S)=  0.000E+00 dE (1.order)= 0.000E+00
 bond charge predicted
       N       E                     dE             d eps       ncg     rms          rms(c)
DAV:   1    -0.244016820620E+02    0.16927E-03   -0.10609E-01  5800   0.206E+00    0.866E-02
DAV:   2    -0.244019281621E+02   -0.24610E-03   -0.48115E-03  8060   0.394E-01    0.492E-02
DAV:   3    -0.244018783998E+02    0.49762E-04   -0.11729E-04  6115   0.835E-02    0.276E-02
DAV:   4    -0.244018635549E+02    0.14845E-04   -0.76543E-05  7705   0.748E-02    0.142E-02
DAV:   5    -0.244018607886E+02    0.27663E-05   -0.93437E-06  2900   0.578E-02
  17 F= -.24401861E+02 E0= -.24401655E+02  d E =-.172775E-04
quench:  g(F)=  0.000E+00 g(S)=  0.000E+00 dE (1.order)= 0.000E+00
 bond charge predicted
       N       E                     dE             d eps       ncg     rms          rms(c)
DAV:   1    -0.244016221182E+02    0.24144E-03   -0.11863E-01  5800   0.207E+00    0.483E-02
DAV:   2    -0.244019564361E+02   -0.33432E-03   -0.38963E-03  8700   0.417E-01    0.427E-02
DAV:   3    -0.244019248875E+02    0.31549E-04   -0.45519E-05  5755   0.561E-02    0.288E-02
DAV:   4    -0.244019040783E+02    0.20809E-04   -0.53613E-05  5790   0.397E-02    0.109E-02
DAV:   5    -0.244019014095E+02    0.26689E-05   -0.46542E-06  2900   0.238E-02
  18 F= -.24401901E+02 E0= -.24401696E+02  d E =-.406209E-04
quench:  g(F)=  0.000E+00 g(S)=  0.000E+00 dE (1.order)= 0.000E+00
 bond charge predicted
       N       E                     dE             d eps       ncg     rms          rms(c)
DAV:   1    -0.244016239890E+02    0.28009E-03   -0.13875E-01  5800   0.228E+00    0.729E-02
DAV:   2    -0.244020419977E+02   -0.41801E-03   -0.56928E-03  8700   0.469E-01    0.542E-02
DAV:   3    -0.244019848490E+02    0.57149E-04   -0.82008E-05  6220   0.894E-02    0.332E-02
DAV:   4    -0.244019693233E+02    0.15526E-04   -0.71718E-05  6860   0.114E-01    0.271E-02
DAV:   5    -0.244019544745E+02    0.14849E-04   -0.35426E-05  4080   0.901E-02    0.899E-03
DAV:   6    -0.244019547833E+02   -0.30879E-06   -0.48373E-05  5165   0.386E-02
  19 F= -.24401955E+02 E0= -.24401749E+02  d E =-.533738E-04
quench:  g(F)=  0.000E+00 g(S)=  0.000E+00 dE (1.order)= 0.000E+00
 bond charge predicted
       N       E                     dE             d eps       ncg     rms          rms(c)
DAV:   1    -0.244016779180E+02    0.27656E-03   -0.16343E-01  5800   0.239E+00    0.480E-02
DAV:   2    -0.244020855088E+02   -0.40759E-03   -0.45745E-03  8235   0.425E-01    0.400E-02
DAV:   3    -0.244020603823E+02    0.25127E-04   -0.74745E-05  5915   0.724E-02    0.288E-02
DAV:   4    -0.244020483080E+02    0.12074E-04   -0.96271E-06  2920   0.364E-02    0.232E-02
DAV:   5    -0.244020347321E+02    0.13576E-04   -0.72724E-05  7160   0.532E-02    0.344E-03
DAV:   6    -0.244020347485E+02   -0.16368E-07   -0.47485E-06  2900   0.139E-02
  20 F= -.24402035E+02 E0= -.24401829E+02  d E =-.799651E-04
quench:  g(F)=  0.000E+00 g(S)=  0.000E+00 dE (1.order)= 0.000E+00
 bond charge predicted
       N       E                     dE             d eps       ncg     rms          rms(c)
DAV:   1    -0.244017384071E+02    0.29632E-03   -0.18858E-01  5800   0.257E+00    0.498E-02
DAV:   2    -0.244022112486E+02   -0.47284E-03   -0.52610E-03  8320   0.458E-01    0.441E-02
DAV:   3    -0.244021806712E+02    0.30577E-04   -0.78063E-05  6125   0.711E-02    0.319E-02
DAV:   4    -0.244021604166E+02    0.20255E-04   -0.19434E-05  3150   0.400E-02    0.227E-02
DAV:   5    -0.244021495645E+02    0.10852E-04   -0.55908E-05  6325   0.569E-02    0.688E-03
DAV:   6    -0.244021491121E+02    0.45234E-06   -0.24240E-05  3605   0.276E-02
  21 F= -.24402149E+02 E0= -.24401944E+02  d E =-.114364E-03
quench:  g(F)=  0.000E+00 g(S)=  0.000E+00 dE (1.order)= 0.000E+00
 bond charge predicted
       N       E                     dE             d eps       ncg     rms          rms(c)
DAV:   1    -0.244018218093E+02    0.32776E-03   -0.21121E-01  5800   0.271E+00    0.534E-02
DAV:   2    -0.244023476710E+02   -0.52586E-03   -0.58731E-03  8150   0.482E-01    0.454E-02
DAV:   3    -0.244023161050E+02    0.31566E-04   -0.10097E-04  6145   0.800E-02    0.330E-02
DAV:   4    -0.244022900638E+02    0.26041E-04   -0.47142E-05  5220   0.465E-02    0.177E-02
DAV:   5    -0.244022811777E+02    0.88860E-05   -0.22972E-05  3565   0.438E-02
  22 F= -.24402281E+02 E0= -.24402076E+02  d E =-.132066E-03
quench:  g(F)=  0.000E+00 g(S)=  0.000E+00 dE (1.order)= 0.000E+00
 bond charge predicted
       N       E                     dE             d eps       ncg     rms          rms(c)
DAV:   1    -0.244019297535E+02    0.36031E-03   -0.23415E-01  5800   0.286E+00    0.561E-02
DAV:   2    -0.244025043702E+02   -0.57462E-03   -0.63958E-03  8300   0.498E-01    0.479E-02
DAV:   3    -0.244024679565E+02    0.36414E-04   -0.95789E-05  6260   0.810E-02    0.346E-02
DAV:   4    -0.244024518729E+02    0.16084E-04   -0.10634E-05  3010   0.365E-02    0.286E-02
DAV:   5    -0.244024304356E+02    0.21437E-04   -0.12715E-04  8280   0.646E-02    0.352E-03
DAV:   6    -0.244024315863E+02   -0.11507E-05   -0.89734E-06  2900   0.170E-02
  23 F= -.24402432E+02 E0= -.24402227E+02  d E =-.150409E-03
quench:  g(F)=  0.000E+00 g(S)=  0.000E+00 dE (1.order)= 0.000E+00
 reached required accuracy - stopping structural energy minimisation
 writing wavefunctions
