 vasp.5.4.1 05Feb16 (build Nov 22 2018 20:17:51) complex                        
  
 POSCAR found type information on POSCAR  Pd
 02/POSCAR found :  1 types and      33 ions
 scaLAPACK will be used

 ----------------------------------------------------------------------------- 
|                                                                             |
|           W    W    AA    RRRRR   N    N  II  N    N   GGGG   !!!           |
|           W    W   A  A   R    R  NN   N  II  NN   N  G    G  !!!           |
|           W    W  A    A  R    R  N N  N  II  N N  N  G       !!!           |
|           W WW W  AAAAAA  RRRRR   N  N N  II  N  N N  G  GGG   !            |
|           WW  WW  A    A  R   R   N   NN  II  N   NN  G    G                |
|           W    W  A    A  R    R  N    N  II  N    N   GGGG   !!!           |
|                                                                             |
|      For optimal performance we recommend to set                            |
|        NCORE= 4 - approx SQRT( number of cores)                             |
|      NCORE specifies how many cores store one orbital (NPAR=cpu/NCORE).     |
|      This setting can  greatly improve the performance of VASP for DFT.     |
|      The default, NPAR=number of cores might be grossly inefficient         |
|      on modern multi-core architectures or massively parallel machines.     |
|      Do your own testing !!!!                                               |
|      Unfortunately you need to use the default for GW and RPA calculations. |
|      (for HF NCORE is supported but not extensively tested yet)             |
|                                                                             |
 ----------------------------------------------------------------------------- 

 LDA part: xc-table for Ceperly-Alder, standard interpolation
 POSCAR found type information on POSCAR  Pd
 00/POSCAR found :  1 types and      33 ions
 POSCAR found type information on POSCAR  Pd
 06/POSCAR found :  1 types and      33 ions
 Jacobian:    20.4934437754924     
 POSCAR, INCAR and KPOINTS ok, starting setup
 WARNING: small aliasing (wrap around) errors must be expected
 FFT: planning ...
 WAVECAR not read
 entering main loop
       N       E                     dE             d eps       ncg     rms          rms(c)
DAV:   1     0.285265883587E+04    0.28527E+04   -0.13720E+05 10000   0.138E+03
DAV:   2     0.745511188703E+02   -0.27781E+04   -0.25974E+04 10232   0.415E+02
DAV:   3    -0.152629606195E+03   -0.22718E+03   -0.20452E+03 11640   0.112E+02
DAV:   4    -0.164783208393E+03   -0.12154E+02   -0.11271E+02 11840   0.276E+01
DAV:   5    -0.165039676453E+03   -0.25647E+00   -0.25593E+00 12208   0.360E+00    0.161E+01
RMM:   6    -0.175967269946E+03   -0.10928E+02   -0.33609E+01 10001   0.164E+01    0.254E+01
RMM:   7    -0.173788495219E+03    0.21788E+01   -0.12911E+01 10029   0.831E+00    0.265E+01
RMM:   8    -0.162584535003E+03    0.11204E+02   -0.10036E+01 10027   0.848E+00    0.175E+01
RMM:   9    -0.158355006559E+03    0.42295E+01   -0.38584E+00 10019   0.573E+00    0.675E+00
RMM:  10    -0.157818270494E+03    0.53674E+00   -0.88063E-01 10020   0.253E+00    0.401E+00
RMM:  11    -0.157836924794E+03   -0.18654E-01   -0.32987E-01 10026   0.154E+00    0.460E+00
RMM:  12    -0.157670321130E+03    0.16660E+00   -0.19497E-01 10021   0.126E+00    0.283E+00
RMM:  13    -0.157673050478E+03   -0.27293E-02   -0.19403E-01 10021   0.115E+00    0.320E+00
RMM:  14    -0.157601958701E+03    0.71092E-01   -0.11500E-01 10019   0.947E-01    0.230E+00
RMM:  15    -0.157553036636E+03    0.48922E-01   -0.55010E-02 10019   0.688E-01    0.115E+00
RMM:  16    -0.157551391226E+03    0.16454E-02   -0.32866E-02 10020   0.447E-01    0.168E+00
RMM:  17    -0.157534722760E+03    0.16668E-01   -0.11968E-02 10021   0.301E-01    0.972E-01
RMM:  18    -0.157525460296E+03    0.92625E-02   -0.56196E-03 10017   0.196E-01    0.456E-01
RMM:  19    -0.157521295267E+03    0.41650E-02   -0.52946E-03 10019   0.172E-01    0.372E-01
RMM:  20    -0.157519378794E+03    0.19165E-02   -0.21735E-03 10013   0.125E-01    0.427E-01
RMM:  21    -0.157552119638E+03   -0.32741E-01   -0.74897E-03 10030   0.150E-01    0.177E+00
RMM:  22    -0.157516773315E+03    0.35346E-01   -0.33572E-03 10024   0.125E-01    0.378E-01
RMM:  23    -0.157517558497E+03   -0.78518E-03   -0.54189E-03 10030   0.129E-01    0.864E-01
RMM:  24    -0.157509347121E+03    0.82114E-02   -0.24006E-03 10025   0.981E-02    0.333E-01
RMM:  25    -0.157508438346E+03    0.90877E-03   -0.94509E-04 10097   0.624E-02    0.402E-01
RMM:  26    -0.157505948292E+03    0.24901E-02   -0.54964E-04 10000   0.442E-02    0.117E-01
RMM:  27    -0.157506565129E+03   -0.61684E-03   -0.56299E-04 10012   0.421E-02    0.284E-01
RMM:  28    -0.157514699796E+03   -0.81347E-02   -0.10692E-03 10010   0.556E-02    0.788E-01
RMM:  29    -0.157513632011E+03    0.10678E-02   -0.10642E-04  8830   0.261E-02    0.675E-01
RMM:  30    -0.157510816446E+03    0.28156E-02   -0.22018E-04  9955   0.266E-02    0.338E-01
RMM:  31    -0.157512427010E+03   -0.16106E-02   -0.16760E-04  8199   0.222E-02    0.393E-01
RMM:  32    -0.157512300560E+03    0.12645E-03   -0.82086E-05  7692   0.135E-02    0.316E-01
RMM:  33    -0.157511793004E+03    0.50756E-03   -0.65917E-05  8346   0.138E-02    0.184E-01
RMM:  34    -0.157511739614E+03    0.53390E-04   -0.15615E-04  9803   0.192E-02    0.460E-02
RMM:  35    -0.157511937098E+03   -0.19748E-03   -0.50013E-05  7022   0.143E-02    0.161E-02
RMM:  36    -0.157512078548E+03   -0.14145E-03   -0.43878E-05  6967   0.950E-03    0.295E-02
RMM:  37    -0.157512165308E+03   -0.86760E-04   -0.23242E-05  6282   0.827E-03    0.614E-02
RMM:  38    -0.157512165612E+03   -0.30460E-06   -0.93073E-06  5773   0.634E-03
   1 F= -.15751217E+03 E0= -.15750909E+03  d E =-.157512E+03
quench:  g(F)=  0.000E+00 g(S)=  0.000E+00 dE (1.order)= 0.000E+00
 bond charge predicted
       N       E                     dE             d eps       ncg     rms          rms(c)
DAV:   1    -0.158009108684E+03   -0.49694E+00   -0.48571E+01 10224   0.137E+01    0.172E+00
RMM:   2    -0.159261957521E+03   -0.12528E+01   -0.16154E+00 10035   0.278E+00    0.121E+01
RMM:   3    -0.158280105006E+03    0.98185E+00   -0.45112E-01 10142   0.154E+00    0.352E+00
RMM:   4    -0.158225576391E+03    0.54529E-01   -0.14719E-01 10066   0.981E-01    0.285E+00
RMM:   5    -0.158135867219E+03    0.89709E-01   -0.31947E-02 10029   0.470E-01    0.898E-01
RMM:   6    -0.158130120769E+03    0.57465E-02   -0.74265E-03 10031   0.241E-01    0.776E-01
RMM:   7    -0.158126995745E+03    0.31250E-02   -0.51810E-03 10037   0.187E-01    0.620E-01
RMM:   8    -0.158123616852E+03    0.33789E-02   -0.65517E-03 10073   0.187E-01    0.449E-01
RMM:   9    -0.158122032087E+03    0.15848E-02   -0.49987E-03 10111   0.160E-01    0.278E-01
RMM:  10    -0.158121626186E+03    0.40590E-03   -0.33112E-03 10336   0.126E-01    0.205E-01
RMM:  11    -0.158121416522E+03    0.20966E-03   -0.12204E-03 10359   0.750E-02    0.147E-01
RMM:  12    -0.158121276705E+03    0.13982E-03   -0.27461E-04 10013   0.407E-02    0.937E-02
RMM:  13    -0.158121224657E+03    0.52048E-04   -0.10929E-04  9975   0.277E-02    0.813E-02
RMM:  14    -0.158121161743E+03    0.62914E-04   -0.12643E-04  9917   0.259E-02    0.413E-02
RMM:  15    -0.158121149649E+03    0.12093E-04   -0.42043E-05  6869   0.156E-02    0.273E-02
RMM:  16    -0.158121149248E+03    0.40106E-06   -0.19390E-05  5556   0.139E-02
   2 F= -.15812115E+03 E0= -.15811809E+03  d E =-.608984E+00
quench:  g(F)=  0.000E+00 g(S)=  0.000E+00 dE (1.order)= 0.000E+00
 bond charge predicted
       N       E                     dE             d eps       ncg     rms          rms(c)
DAV:   1    -0.158272419463E+03   -0.15127E+00   -0.11342E+02 10032   0.220E+01    0.217E+00
RMM:   2    -0.159390652164E+03   -0.11182E+01   -0.39831E+00 10046   0.473E+00    0.102E+01
RMM:   3    -0.158847177909E+03    0.54347E+00   -0.95862E-01 11749   0.216E+00    0.454E+00
RMM:   4    -0.158824005610E+03    0.23172E-01   -0.21525E-01 10037   0.122E+00    0.407E+00
RMM:   5    -0.158634294486E+03    0.18971E+00   -0.62238E-02 10032   0.680E-01    0.135E+00
RMM:   6    -0.158624884001E+03    0.94105E-02   -0.15898E-02 10030   0.331E-01    0.132E+00
RMM:   7    -0.158614761635E+03    0.10122E-01   -0.10711E-02 10047   0.251E-01    0.981E-01
RMM:   8    -0.158604689776E+03    0.10072E-01   -0.15882E-02 10243   0.269E-01    0.618E-01
RMM:   9    -0.158600953507E+03    0.37363E-02   -0.12857E-02 10575   0.238E-01    0.393E-01
RMM:  10    -0.158600246671E+03    0.70684E-03   -0.11210E-02 10987   0.216E-01    0.308E-01
RMM:  11    -0.158599663796E+03    0.58287E-03   -0.38014E-03 11134   0.130E-01    0.166E-01
RMM:  12    -0.158599556948E+03    0.10685E-03   -0.61092E-04 10051   0.629E-02    0.143E-01
RMM:  13    -0.158599321753E+03    0.23520E-03   -0.26630E-04 10004   0.425E-02    0.892E-02
RMM:  14    -0.158599243066E+03    0.78688E-04   -0.17062E-04  9995   0.320E-02    0.584E-02
RMM:  15    -0.158599225178E+03    0.17888E-04   -0.16583E-04 10421   0.258E-02    0.371E-02
RMM:  16    -0.158599227909E+03   -0.27312E-05   -0.66928E-05  8666   0.169E-02
   3 F= -.15859923E+03 E0= -.15859643E+03  d E =-.478079E+00
quench:  g(F)=  0.000E+00 g(S)=  0.000E+00 dE (1.order)= 0.000E+00
 bond charge predicted
       N       E                     dE             d eps       ncg     rms          rms(c)
DAV:   1    -0.158533182274E+03    0.66043E-01   -0.11240E+02 10000   0.223E+01    0.198E+00
RMM:   2    -0.159160454368E+03   -0.62727E+00   -0.39612E+00 10042   0.502E+00    0.645E+00
RMM:   3    -0.159197785526E+03   -0.37331E-01   -0.95375E-01 13852   0.190E+00    0.563E+00
RMM:   4    -0.159019911668E+03    0.17787E+00   -0.17020E-01 10040   0.112E+00    0.337E+00
RMM:   5    -0.158882022985E+03    0.13789E+00   -0.51618E-02 10031   0.630E-01    0.124E+00
RMM:   6    -0.158872534932E+03    0.94881E-02   -0.13986E-02 10033   0.298E-01    0.113E+00
RMM:   7    -0.158865361919E+03    0.71730E-02   -0.94219E-03 10233   0.214E-01    0.916E-01
RMM:   8    -0.158857089387E+03    0.82725E-02   -0.14238E-02 10359   0.250E-01    0.620E-01
RMM:   9    -0.158852425750E+03    0.46636E-02   -0.14845E-02 10934   0.243E-01    0.342E-01
RMM:  10    -0.158852107552E+03    0.31820E-03   -0.14296E-02 11632   0.234E-01    0.321E-01
RMM:  11    -0.158851610933E+03    0.49662E-03   -0.41879E-03 11354   0.138E-01    0.181E-01
RMM:  12    -0.158851441161E+03    0.16977E-03   -0.59484E-04 10036   0.633E-02    0.173E-01
RMM:  13    -0.158851060897E+03    0.38026E-03   -0.30507E-04 10011   0.453E-02    0.105E-01
RMM:  14    -0.158850936491E+03    0.12441E-03   -0.23502E-04 10054   0.337E-02    0.755E-02
RMM:  15    -0.158850868314E+03    0.68177E-04   -0.39131E-04 10993   0.367E-02    0.348E-02
RMM:  16    -0.158850870567E+03   -0.22528E-05   -0.90667E-05  9687   0.204E-02
   4 F= -.15885087E+03 E0= -.15884802E+03  d E =-.251643E+00
quench:  g(F)=  0.000E+00 g(S)=  0.000E+00 dE (1.order)= 0.000E+00
 bond charge predicted
       N       E                     dE             d eps       ncg     rms          rms(c)
DAV:   1    -0.158680898590E+03    0.16997E+00   -0.99935E+01 10016   0.210E+01    0.172E+00
RMM:   2    -0.159262877353E+03   -0.58198E+00   -0.33000E+00 10044   0.441E+00    0.608E+00
RMM:   3    -0.159173776620E+03    0.89101E-01   -0.72226E-01 13925   0.173E+00    0.451E+00
RMM:   4    -0.159064095005E+03    0.10968E+00   -0.11898E-01 10033   0.947E-01    0.275E+00
RMM:   5    -0.158977174321E+03    0.86921E-01   -0.33023E-02 10032   0.519E-01    0.112E+00
RMM:   6    -0.158969479695E+03    0.76946E-02   -0.84716E-03 10035   0.232E-01    0.983E-01
RMM:   7    -0.158963491397E+03    0.59883E-02   -0.77184E-03 10238   0.191E-01    0.803E-01
RMM:   8    -0.158955520798E+03    0.79706E-02   -0.14969E-02 10463   0.248E-01    0.505E-01
RMM:   9    -0.158952410134E+03    0.31107E-02   -0.16731E-02 11448   0.255E-01    0.321E-01
RMM:  10    -0.158952293346E+03    0.11679E-03   -0.12364E-02 11806   0.221E-01    0.262E-01
RMM:  11    -0.158951909490E+03    0.38386E-03   -0.21014E-03 11714   0.102E-01    0.169E-01
RMM:  12    -0.158951674231E+03    0.23526E-03   -0.29105E-04 10016   0.455E-02    0.152E-01
RMM:  13    -0.158951326049E+03    0.34818E-03   -0.43390E-04 10022   0.463E-02    0.857E-02
RMM:  14    -0.158951248881E+03    0.77168E-04   -0.30549E-04 11580   0.348E-02    0.541E-02
RMM:  15    -0.158951231132E+03    0.17749E-04   -0.25012E-04 11225   0.300E-02    0.283E-02
RMM:  16    -0.158951236181E+03   -0.50483E-05   -0.42487E-05  7343   0.154E-02
   5 F= -.15895124E+03 E0= -.15894856E+03  d E =-.100366E+00
quench:  g(F)=  0.000E+00 g(S)=  0.000E+00 dE (1.order)= 0.000E+00
 bond charge predicted
       N       E                     dE             d eps       ncg     rms          rms(c)
DAV:   1    -0.158871223139E+03    0.80008E-01   -0.40177E+01 10032   0.133E+01    0.951E-01
RMM:   2    -0.159019606099E+03   -0.14838E+00   -0.12643E+00 10045   0.265E+00    0.222E+00
RMM:   3    -0.159080242853E+03   -0.60637E-01   -0.22712E-01 14018   0.962E-01    0.320E+00
RMM:   4    -0.159010913263E+03    0.69330E-01   -0.36502E-02 10038   0.508E-01    0.160E+00
RMM:   5    -0.158983606556E+03    0.27307E-01   -0.10725E-02 10031   0.299E-01    0.626E-01
RMM:   6    -0.158980846917E+03    0.27596E-02   -0.24596E-03 10037   0.125E-01    0.537E-01
RMM:   7    -0.158978145861E+03    0.27011E-02   -0.31842E-03 11108   0.111E-01    0.418E-01
RMM:   8    -0.158975139042E+03    0.30068E-02   -0.78454E-03 10301   0.175E-01    0.290E-01
RMM:   9    -0.158974812718E+03    0.32632E-03   -0.13284E-02 12416   0.219E-01    0.235E-01
RMM:  10    -0.158974784850E+03    0.27868E-04   -0.27675E-03 11531   0.112E-01    0.159E-01
RMM:  11    -0.158974540024E+03    0.24483E-03   -0.24671E-04 10021   0.426E-02    0.141E-01
RMM:  12    -0.158974200925E+03    0.33910E-03   -0.35378E-04 10025   0.400E-02    0.856E-02
RMM:  13    -0.158974101614E+03    0.99310E-04   -0.27046E-04 12440   0.312E-02    0.510E-02
RMM:  14    -0.158974067300E+03    0.34314E-04   -0.12067E-04 10050   0.220E-02    0.337E-02
RMM:  15    -0.158974056101E+03    0.11199E-04   -0.10701E-04  9963   0.197E-02    0.146E-02
RMM:  16    -0.158974057192E+03   -0.10914E-05   -0.19550E-05  5465   0.110E-02
   6 F= -.15897406E+03 E0= -.15897148E+03  d E =-.228210E-01
quench:  g(F)=  0.000E+00 g(S)=  0.000E+00 dE (1.order)= 0.000E+00
 bond charge predicted
       N       E                     dE             d eps       ncg     rms          rms(c)
DAV:   1    -0.158974617058E+03   -0.56096E-03   -0.58404E-02 10400   0.504E-01    0.394E-02
RMM:   2    -0.158975088741E+03   -0.47168E-03   -0.19295E-03 10037   0.956E-02    0.183E-01
RMM:   3    -0.158974848572E+03    0.24017E-03   -0.31281E-04 13057   0.340E-02    0.815E-02
RMM:   4    -0.158974795916E+03    0.52656E-04   -0.53807E-05  8379   0.210E-02    0.489E-02
RMM:   5    -0.158974770461E+03    0.25455E-04   -0.11662E-05  5425   0.121E-02    0.209E-02
RMM:   6    -0.158974767777E+03    0.26842E-05   -0.35619E-06  5158   0.601E-03
   7 F= -.15897477E+03 E0= -.15897219E+03  d E =-.710585E-03
quench:  g(F)=  0.000E+00 g(S)=  0.000E+00 dE (1.order)= 0.000E+00
 bond charge predicted
       N       E                     dE             d eps       ncg     rms          rms(c)
DAV:   1    -0.158975241701E+03   -0.47124E-03   -0.20632E-01 10160   0.947E-01    0.642E-02
RMM:   2    -0.158976107301E+03   -0.86560E-03   -0.62091E-03 10045   0.171E-01    0.192E-01
RMM:   3    -0.158976219283E+03   -0.11198E-03   -0.97764E-04 13849   0.596E-02    0.208E-01
RMM:   4    -0.158975874817E+03    0.34447E-03   -0.17736E-04  9997   0.353E-02    0.923E-02
RMM:   5    -0.158975770594E+03    0.10422E-03   -0.32564E-05  6267   0.168E-02    0.408E-02
RMM:   6    -0.158975759174E+03    0.11420E-04   -0.15669E-05  5201   0.118E-02    0.381E-02
RMM:   7    -0.158975734380E+03    0.24794E-04   -0.11796E-04  9929   0.219E-02    0.242E-02
RMM:   8    -0.158975732541E+03    0.18388E-05   -0.66069E-05  8779   0.168E-02
   8 F= -.15897573E+03 E0= -.15897316E+03  d E =-.964764E-03
quench:  g(F)=  0.000E+00 g(S)=  0.000E+00 dE (1.order)= 0.000E+00
 bond charge predicted
       N       E                     dE             d eps       ncg     rms          rms(c)
DAV:   1    -0.158975843318E+03   -0.10894E-03   -0.39864E-01 10096   0.132E+00    0.108E-01
RMM:   2    -0.158977857751E+03   -0.20144E-02   -0.13204E-02 10045   0.245E-01    0.325E-01
RMM:   3    -0.158977806081E+03    0.51670E-04   -0.21040E-03 13569   0.881E-02    0.303E-01
RMM:   4    -0.158977121829E+03    0.68425E-03   -0.49694E-04 10008   0.603E-02    0.143E-01
RMM:   5    -0.158976873757E+03    0.24807E-03   -0.11215E-04  9994   0.308E-02    0.516E-02
RMM:   6    -0.158976849601E+03    0.24155E-04   -0.20168E-05  5607   0.123E-02    0.430E-02
RMM:   7    -0.158976823518E+03    0.26083E-04   -0.77925E-05  9135   0.190E-02    0.357E-02
RMM:   8    -0.158976808978E+03    0.14540E-04   -0.88174E-05  9718   0.186E-02    0.216E-02
RMM:   9    -0.158976809180E+03   -0.20264E-06   -0.42568E-05  7028   0.144E-02
   9 F= -.15897681E+03 E0= -.15897425E+03  d E =-.107664E-02
quench:  g(F)=  0.000E+00 g(S)=  0.000E+00 dE (1.order)= 0.000E+00
 bond charge predicted
       N       E                     dE             d eps       ncg     rms          rms(c)
DAV:   1    -0.158976514090E+03    0.29489E-03   -0.56558E-01 10056   0.156E+00    0.124E-01
RMM:   2    -0.158980456920E+03   -0.39428E-02   -0.18686E-02 10050   0.291E-01    0.504E-01
RMM:   3    -0.158978888196E+03    0.15687E-02   -0.29372E-03 13467   0.103E-01    0.285E-01
RMM:   4    -0.158978302206E+03    0.58599E-03   -0.64971E-04 10018   0.701E-02    0.162E-01
RMM:   5    -0.158978001256E+03    0.30095E-03   -0.13455E-04  9996   0.338E-02    0.669E-02
RMM:   6    -0.158977967963E+03    0.33293E-04   -0.24315E-05  5916   0.141E-02    0.553E-02
RMM:   7    -0.158977943651E+03    0.24312E-04   -0.34805E-05  6392   0.152E-02    0.484E-02
RMM:   8    -0.158977902465E+03    0.41186E-04   -0.18606E-04 10919   0.269E-02    0.320E-02
RMM:   9    -0.158977896330E+03    0.61348E-05   -0.76685E-05  9411   0.177E-02
  10 F= -.15897790E+03 E0= -.15897535E+03  d E =-.108715E-02
quench:  g(F)=  0.000E+00 g(S)=  0.000E+00 dE (1.order)= 0.000E+00
 bond charge predicted
       N       E                     dE             d eps       ncg     rms          rms(c)
DAV:   1    -0.158977479365E+03    0.42310E-03   -0.68104E-01 10048   0.171E+00    0.133E-01
RMM:   2    -0.158982599948E+03   -0.51206E-02   -0.22362E-02 10056   0.315E-01    0.585E-01
RMM:   3    -0.158980290621E+03    0.23093E-02   -0.34746E-03 13252   0.112E-01    0.302E-01
RMM:   4    -0.158979669827E+03    0.62079E-03   -0.77566E-04 10029   0.761E-02    0.191E-01
RMM:   5    -0.158979289707E+03    0.38012E-03   -0.17010E-04 10000   0.381E-02    0.790E-02
RMM:   6    -0.158979241044E+03    0.48663E-04   -0.31665E-05  6410   0.163E-02    0.620E-02
RMM:   7    -0.158979208754E+03    0.32290E-04   -0.37075E-05  6633   0.154E-02    0.520E-02
RMM:   8    -0.158979155011E+03    0.53743E-04   -0.21586E-04 10934   0.285E-02    0.355E-02
RMM:   9    -0.158979146701E+03    0.83101E-05   -0.96216E-05  9902   0.192E-02
  11 F= -.15897915E+03 E0= -.15897661E+03  d E =-.125037E-02
quench:  g(F)=  0.000E+00 g(S)=  0.000E+00 dE (1.order)= 0.000E+00
 bond charge predicted
       N       E                     dE             d eps       ncg     rms          rms(c)
DAV:   1    -0.158978503552E+03    0.65146E-03   -0.83030E-01 10032   0.189E+00    0.143E-01
RMM:   2    -0.158984393800E+03   -0.58902E-02   -0.26934E-02 10057   0.348E-01    0.616E-01
RMM:   3    -0.158981799070E+03    0.25947E-02   -0.41840E-03 13594   0.123E-01    0.314E-01
RMM:   4    -0.158981145286E+03    0.65378E-03   -0.83862E-04 10026   0.795E-02    0.204E-01
RMM:   5    -0.158980719339E+03    0.42595E-03   -0.19583E-04 10000   0.414E-02    0.850E-02
RMM:   6    -0.158980664052E+03    0.55287E-04   -0.40012E-05  7044   0.177E-02    0.684E-02
RMM:   7    -0.158980621339E+03    0.42713E-04   -0.54760E-05  8029   0.174E-02    0.564E-02
RMM:   8    -0.158980556800E+03    0.64538E-04   -0.24987E-04 10434   0.301E-02    0.376E-02
RMM:   9    -0.158980550129E+03    0.66715E-05   -0.12567E-04 10395   0.214E-02    0.268E-02
RMM:  10    -0.158980550368E+03   -0.23920E-06   -0.42035E-05  7121   0.141E-02
  12 F= -.15898055E+03 E0= -.15897803E+03  d E =-.140367E-02
quench:  g(F)=  0.000E+00 g(S)=  0.000E+00 dE (1.order)= 0.000E+00
 bond charge predicted
       N       E                     dE             d eps       ncg     rms          rms(c)
DAV:   1    -0.158979748344E+03    0.80179E-03   -0.95285E-01 10016   0.203E+00    0.159E-01
RMM:   2    -0.158989924253E+03   -0.10176E-01   -0.32477E-02 10060   0.382E-01    0.881E-01
RMM:   3    -0.158983354788E+03    0.65695E-02   -0.50426E-03 12749   0.137E-01    0.286E-01
RMM:   4    -0.158982789402E+03    0.56539E-03   -0.10396E-03 10033   0.876E-02    0.209E-01
RMM:   5    -0.158982306320E+03    0.48308E-03   -0.22508E-04 10000   0.439E-02    0.885E-02
RMM:   6    -0.158982249298E+03    0.57022E-04   -0.41185E-05  7184   0.177E-02    0.717E-02
RMM:   7    -0.158982205436E+03    0.43862E-04   -0.53340E-05  7903   0.176E-02    0.620E-02
RMM:   8    -0.158982131475E+03    0.73961E-04   -0.25447E-04 10613   0.306E-02    0.407E-02
RMM:   9    -0.158982120232E+03    0.11243E-04   -0.13511E-04 10513   0.223E-02    0.276E-02
RMM:  10    -0.158982119765E+03    0.46741E-06   -0.50354E-05  7851   0.151E-02
  13 F= -.15898212E+03 E0= -.15897961E+03  d E =-.156940E-02
quench:  g(F)=  0.000E+00 g(S)=  0.000E+00 dE (1.order)= 0.000E+00
 bond charge predicted
       N       E                     dE             d eps       ncg     rms          rms(c)
DAV:   1    -0.158981130295E+03    0.98994E-03   -0.10343E+00 10000   0.211E+00    0.163E-01
RMM:   2    -0.158991610559E+03   -0.10480E-01   -0.35080E-02 10062   0.396E-01    0.884E-01
RMM:   3    -0.158984992892E+03    0.66177E-02   -0.54125E-03 12934   0.141E-01    0.291E-01
RMM:   4    -0.158984361712E+03    0.63118E-03   -0.10642E-03 10030   0.889E-02    0.203E-01
RMM:   5    -0.158983906599E+03    0.45511E-03   -0.22811E-04 10004   0.441E-02    0.913E-02
RMM:   6    -0.158983847184E+03    0.59416E-04   -0.44185E-05  7381   0.179E-02    0.743E-02
RMM:   7    -0.158983802241E+03    0.44943E-04   -0.55664E-05  8068   0.177E-02    0.657E-02
RMM:   8    -0.158983720749E+03    0.81492E-04   -0.26714E-04 10447   0.312E-02    0.444E-02
RMM:   9    -0.158983707577E+03    0.13173E-04   -0.14873E-04 10810   0.230E-02    0.311E-02
RMM:  10    -0.158983706108E+03    0.14684E-05   -0.60028E-05  8649   0.160E-02
  14 F= -.15898371E+03 E0= -.15898121E+03  d E =-.158634E-02
quench:  g(F)=  0.000E+00 g(S)=  0.000E+00 dE (1.order)= 0.000E+00
 bond charge predicted
       N       E                     dE             d eps       ncg     rms          rms(c)
DAV:   1    -0.158982395662E+03    0.13119E-02   -0.10703E+00 10000   0.215E+00    0.165E-01
RMM:   2    -0.158991924350E+03   -0.95287E-02   -0.36029E-02 10061   0.403E-01    0.820E-01
RMM:   3    -0.158986455531E+03    0.54688E-02   -0.54943E-03 13360   0.142E-01    0.315E-01
RMM:   4    -0.158985708664E+03    0.74687E-03   -0.11132E-03 10031   0.919E-02    0.198E-01
RMM:   5    -0.158985254548E+03    0.45412E-03   -0.22557E-04 10014   0.444E-02    0.872E-02
RMM:   6    -0.158985198018E+03    0.56530E-04   -0.44306E-05  7344   0.174E-02    0.731E-02
RMM:   7    -0.158985146000E+03    0.52018E-04   -0.94398E-05  9579   0.213E-02    0.681E-02
RMM:   8    -0.158985076706E+03    0.69294E-04   -0.25873E-04 10668   0.299E-02    0.485E-02
RMM:   9    -0.158985063577E+03    0.13129E-04   -0.12769E-04 10386   0.221E-02    0.356E-02
RMM:  10    -0.158985060081E+03    0.34960E-05   -0.60075E-05  8646   0.161E-02
  15 F= -.15898506E+03 E0= -.15898257E+03  d E =-.135397E-02
quench:  g(F)=  0.000E+00 g(S)=  0.000E+00 dE (1.order)= 0.000E+00
 bond charge predicted
       N       E                     dE             d eps       ncg     rms          rms(c)
DAV:   1    -0.158983589515E+03    0.14741E-02   -0.83988E-01 10000   0.190E+00    0.148E-01
RMM:   2    -0.158992491387E+03   -0.89019E-02   -0.28735E-02 10060   0.356E-01    0.817E-01
RMM:   3    -0.158986634277E+03    0.58571E-02   -0.44097E-03 12733   0.128E-01    0.250E-01
RMM:   4    -0.158986124716E+03    0.50956E-03   -0.81708E-04 10026   0.774E-02    0.166E-01
RMM:   5    -0.158985814931E+03    0.30978E-03   -0.17506E-04 10002   0.387E-02    0.777E-02
RMM:   6    -0.158985770613E+03    0.44318E-04   -0.35815E-05  6756   0.158E-02    0.652E-02
RMM:   7    -0.158985715957E+03    0.54656E-04   -0.11308E-04  9895   0.225E-02    0.553E-02
RMM:   8    -0.158985673302E+03    0.42655E-04   -0.17175E-04 10960   0.244E-02    0.358E-02
RMM:   9    -0.158985670242E+03    0.30596E-05   -0.83111E-05  9596   0.190E-02
  16 F= -.15898567E+03 E0= -.15898319E+03  d E =-.610162E-03
quench:  g(F)=  0.000E+00 g(S)=  0.000E+00 dE (1.order)= 0.000E+00
 bond charge predicted
       N       E                     dE             d eps       ncg     rms          rms(c)
DAV:   1    -0.158985739839E+03   -0.66537E-04   -0.33768E-02 10176   0.385E-01    0.379E-02
RMM:   2    -0.158986094384E+03   -0.35455E-03   -0.11768E-03 10017   0.741E-02    0.167E-01
RMM:   3    -0.158985948915E+03    0.14547E-03   -0.19249E-04 10403   0.286E-02    0.110E-01
RMM:   4    -0.158985845209E+03    0.10371E-03   -0.76349E-05  9582   0.227E-02    0.485E-02
RMM:   5    -0.158985821874E+03    0.23335E-04   -0.14153E-05  5549   0.114E-02    0.247E-02
RMM:   6    -0.158985816451E+03    0.54231E-05   -0.59330E-06  5182   0.971E-03
  17 F= -.15898582E+03 E0= -.15898333E+03  d E =-.146209E-03
quench:  g(F)=  0.000E+00 g(S)=  0.000E+00 dE (1.order)= 0.000E+00
 bond charge predicted
       N       E                     dE             d eps       ncg     rms          rms(c)
DAV:   1    -0.158985901342E+03   -0.79468E-04   -0.36901E-02 10032   0.399E-01    0.271E-02
RMM:   2    -0.158986140505E+03   -0.23916E-03   -0.10910E-03 10032   0.724E-02    0.124E-01
RMM:   3    -0.158986091352E+03    0.49153E-04   -0.16792E-04 11118   0.250E-02    0.944E-02
RMM:   4    -0.158986004764E+03    0.86588E-04   -0.34448E-05  6466   0.165E-02    0.317E-02
RMM:   5    -0.158985993435E+03    0.11329E-04   -0.84793E-06  5197   0.115E-02    0.194E-02
RMM:   6    -0.158985991953E+03    0.14829E-05   -0.16590E-06  5069   0.418E-03
  18 F= -.15898599E+03 E0= -.15898350E+03  d E =-.175502E-03
quench:  g(F)=  0.000E+00 g(S)=  0.000E+00 dE (1.order)= 0.000E+00
 bond charge predicted
       N       E                     dE             d eps       ncg     rms          rms(c)
DAV:   1    -0.158986088915E+03   -0.95479E-04   -0.98934E-03 10144   0.206E-01    0.216E-02
RMM:   2    -0.158986288243E+03   -0.19933E-03   -0.34608E-04  9979   0.406E-02    0.135E-01
RMM:   3    -0.158986152378E+03    0.13586E-03   -0.61763E-05  8748   0.168E-02    0.622E-02
RMM:   4    -0.158986112048E+03    0.40330E-04   -0.20828E-05  5717   0.140E-02    0.207E-02
RMM:   5    -0.158986107907E+03    0.41418E-05   -0.69424E-06  5202   0.100E-02
  19 F= -.15898611E+03 E0= -.15898362E+03  d E =-.115954E-03
quench:  g(F)=  0.000E+00 g(S)=  0.000E+00 dE (1.order)= 0.000E+00
 reached required accuracy - stopping structural energy minimisation
 writing wavefunctions
