 running on   35 total cores
 distrk:  each k-point on   35 cores,    1 groups
 distr:  one band on    1 cores,   35 groups
 using from now: INCAR     
 vasp.5.4.1 24Jun15 (build Oct 26 2018 17:15:27) complex                        
  
 POSCAR found type information on POSCAR  Cu
 POSCAR found :  1 types and       4 ions
 scaLAPACK will be used

 ----------------------------------------------------------------------------- 
|                                                                             |
|           W    W    AA    RRRRR   N    N  II  N    N   GGGG   !!!           |
|           W    W   A  A   R    R  NN   N  II  NN   N  G    G  !!!           |
|           W    W  A    A  R    R  N N  N  II  N N  N  G       !!!           |
|           W WW W  AAAAAA  RRRRR   N  N N  II  N  N N  G  GGG   !            |
|           WW  WW  A    A  R   R   N   NN  II  N   NN  G    G                |
|           W    W  A    A  R    R  N    N  II  N    N   GGGG   !!!           |
|                                                                             |
|      For optimal performance we recommend to set                            |
|        NCORE= 4 - approx SQRT( number of cores)                             |
|      NCORE specifies how many cores store one orbital (NPAR=cpu/NCORE).     |
|      This setting can  greatly improve the performance of VASP for DFT.     |
|      The default, NPAR=number of cores might be grossly inefficient         |
|      on modern multi-core architectures or massively parallel machines.     |
|      Do your own testing !!!!                                               |
|      Unfortunately you need to use the default for GW and RPA calculations. |
|      (for HF NCORE is supported but not extensively tested yet)             |
|                                                                             |
 ----------------------------------------------------------------------------- 

 LDA part: xc-table for Ceperly-Alder, standard interpolation
 POSCAR, INCAR and KPOINTS ok, starting setup
 WARNING: small aliasing (wrap around) errors must be expected
 FFT: planning ...
 WAVECAR not read
 entering main loop
       N       E                     dE             d eps       ncg     rms          rms(c)
DAV:   1     0.683025806552E+02    0.68303E+02   -0.23820E+04  8400   0.188E+03
DAV:   2    -0.180057817618E+02   -0.86308E+02   -0.85744E+02  8750   0.149E+02
DAV:   3    -0.182731017256E+02   -0.26732E+00   -0.26732E+00 12180   0.119E+01
DAV:   4    -0.182733096653E+02   -0.20794E-03   -0.20794E-03 10360   0.243E-01
DAV:   5    -0.182733099833E+02   -0.31797E-06   -0.31861E-06 12425   0.628E-03    0.137E+01
DAV:   6    -0.162561808774E+02    0.20171E+01   -0.65820E+01  8540   0.707E+01    0.629E+00
DAV:   7    -0.149651976364E+02    0.12910E+01   -0.98764E+00  8435   0.277E+01    0.117E+00
DAV:   8    -0.149211815908E+02    0.44016E-01   -0.14708E-02  9450   0.105E+00    0.588E-01
DAV:   9    -0.149142177743E+02    0.69638E-02   -0.50304E-02  8750   0.180E+00    0.549E-02
DAV:  10    -0.149142285113E+02   -0.10737E-04   -0.21871E-04 10500   0.134E-01    0.125E-02
DAV:  11    -0.149142231963E+02    0.53150E-05   -0.34238E-06  5985   0.183E-02
   1 F= -.14914223E+02 E0= -.14914154E+02  d E =-.149142E+02
 curvature:   0.00 expect dE= 0.000E+00 dE for cont linesearch  0.000E+00
 trial: gam= 0.00000 g(F)=  0.344E-61 g(S)=  0.939E-04 ort = 0.000E+00 (trialstep = 0.100E+01)
 search vector abs. value=  0.939E-04
 bond charge predicted
       N       E                     dE             d eps       ncg     rms          rms(c)
DAV:   1    -0.149149065184E+02   -0.67801E-03   -0.94551E-03  8470   0.897E-01    0.184E-01
DAV:   2    -0.149145225442E+02    0.38397E-03   -0.89139E-03  8400   0.803E-01    0.662E-02
DAV:   3    -0.149143471730E+02    0.17537E-03   -0.14988E-03  8540   0.343E-01    0.313E-02
DAV:   4    -0.149143271796E+02    0.19993E-04   -0.35834E-05  7630   0.309E-02    0.146E-03
DAV:   5    -0.149143269916E+02    0.18797E-06   -0.60002E-07  4410   0.535E-03
   2 F= -.14914327E+02 E0= -.14914258E+02  d E =-.103795E-03
 ZBRENT: can't locate minimum, use default step
 trial-energy change:   -0.000104  1 .order   -0.000091   -0.000094   -0.000087
 step:   4.0000(harm= 14.2623)  dis= 0.00000  next Energy=   -14.914893 (dE=-0.670E-03)
 bond charge predicted
       N       E                     dE             d eps       ncg     rms          rms(c)
DAV:   1    -0.149197038283E+02   -0.53766E-02   -0.84491E-02  8400   0.268E+00    0.551E-01
DAV:   2    -0.149161979004E+02    0.35059E-02   -0.79797E-02  8400   0.240E+00    0.196E-01
DAV:   3    -0.149146530650E+02    0.15448E-02   -0.13270E-02  8470   0.102E+00    0.940E-02
DAV:   4    -0.149144670345E+02    0.18603E-03   -0.33030E-04 12915   0.933E-02    0.460E-03
DAV:   5    -0.149144664317E+02    0.60289E-06   -0.11561E-06  4445   0.771E-03
   3 F= -.14914466E+02 E0= -.14914398E+02  d E =-.243235E-03
 curvature:  -2.86 expect dE=-0.546E-06 dE for cont linesearch -0.546E-06
 trial: gam= 0.00000 g(F)=  0.418E-61 g(S)=  0.191E-06 ort =-0.423E-05 (trialstep = 0.160E+01)
 search vector abs. value=  0.191E-06
 reached required accuracy - stopping structural energy minimisation
 writing wavefunctions
