 vasp.5.4.1 05Feb16 (build Nov 22 2018 20:17:51) complex                        
  
 POSCAR found type information on POSCAR  Si
 03/POSCAR found :  1 types and      63 ions
 scaLAPACK will be used

 ----------------------------------------------------------------------------- 
|                                                                             |
|           W    W    AA    RRRRR   N    N  II  N    N   GGGG   !!!           |
|           W    W   A  A   R    R  NN   N  II  NN   N  G    G  !!!           |
|           W    W  A    A  R    R  N N  N  II  N N  N  G       !!!           |
|           W WW W  AAAAAA  RRRRR   N  N N  II  N  N N  G  GGG   !            |
|           WW  WW  A    A  R   R   N   NN  II  N   NN  G    G                |
|           W    W  A    A  R    R  N    N  II  N    N   GGGG   !!!           |
|                                                                             |
|      For optimal performance we recommend to set                            |
|        NCORE= 4 - approx SQRT( number of cores)                             |
|      NCORE specifies how many cores store one orbital (NPAR=cpu/NCORE).     |
|      This setting can  greatly improve the performance of VASP for DFT.     |
|      The default, NPAR=number of cores might be grossly inefficient         |
|      on modern multi-core architectures or massively parallel machines.     |
|      Do your own testing !!!!                                               |
|      Unfortunately you need to use the default for GW and RPA calculations. |
|      (for HF NCORE is supported but not extensively tested yet)             |
|                                                                             |
 ----------------------------------------------------------------------------- 


 ----------------------------------------------------------------------------- 
|                                                                             |
|  ADVICE TO THIS USER RUNNING 'VASP/VAMP'   (HEAR YOUR MASTER'S VOICE ...):  |
|                                                                             |
|      You have a (more or less) 'large supercell' and for larger cells       |
|      it might be more efficient to use real space projection operators      |
|      So try LREAL= Auto  in the INCAR   file.                               |
|      Mind: If you want to do a very accurate calculations keep the          |
|      reciprocal projection scheme          (i.e. LREAL=.FALSE.)             |
|                                                                             |
 ----------------------------------------------------------------------------- 

 LDA part: xc-table for Ceperly-Alder, standard interpolation
 POSCAR found type information on POSCAR  Si
 00/POSCAR found :  1 types and      63 ions
 POSCAR found type information on POSCAR  Si
 06/POSCAR found :  1 types and      63 ions
 Jacobian:    21.7332726272699     
 POSCAR, INCAR and KPOINTS ok, starting setup
 WARNING: small aliasing (wrap around) errors must be expected
 FFT: planning ...
 WAVECAR not read
 entering main loop
       N       E                     dE             d eps       ncg     rms          rms(c)
DAV:   1     0.663248778950E+03    0.66325E+03   -0.93805E+04  6080   0.126E+03
DAV:   2    -0.270815022443E+03   -0.93406E+03   -0.88993E+03  7248   0.184E+02
DAV:   3    -0.341067460584E+03   -0.70252E+02   -0.68936E+02  7440   0.441E+01
DAV:   4    -0.342959024465E+03   -0.18916E+01   -0.18783E+01  7304   0.882E+00
DAV:   5    -0.343020422365E+03   -0.61398E-01   -0.61228E-01  7408   0.152E+00    0.163E+01
DAV:   6    -0.339445478465E+03    0.35749E+01   -0.30052E+00  7184   0.290E+00    0.964E+00
DAV:   7    -0.337960913652E+03    0.14846E+01   -0.43243E+00  6840   0.342E+00    0.116E+00
DAV:   8    -0.337980739894E+03   -0.19826E-01   -0.29555E-01  7144   0.110E+00    0.492E-01
DAV:   9    -0.337990318428E+03   -0.95785E-02   -0.38983E-02  6944   0.399E-01    0.179E-01
DAV:  10    -0.337992146244E+03   -0.18278E-02   -0.54454E-03  7352   0.145E-01    0.649E-02
DAV:  11    -0.337992502091E+03   -0.35585E-03   -0.68606E-04  7296   0.590E-02    0.260E-02
DAV:  12    -0.337992588817E+03   -0.86726E-04   -0.28259E-04  7280   0.337E-02    0.921E-03
DAV:  13    -0.337992591810E+03   -0.29922E-05   -0.33386E-05  5488   0.126E-02
   1 F= -.33799259E+03 E0= -.33799238E+03  d E =-.337993E+03
quench:  g(F)=  0.000E+00 g(S)=  0.000E+00 dE (1.order)= 0.000E+00
 bond charge predicted
       N       E                     dE             d eps       ncg     rms          rms(c)
DAV:   1    -0.338045308661E+03   -0.52720E-01   -0.25410E-01  6528   0.901E-01    0.290E-01
DAV:   2    -0.338042658183E+03    0.26505E-02   -0.13721E-02  7296   0.234E-01    0.174E-01
DAV:   3    -0.338040812929E+03    0.18453E-02   -0.54552E-03  6904   0.136E-01    0.284E-02
DAV:   4    -0.338040853859E+03   -0.40929E-04   -0.72061E-04  6984   0.542E-02    0.218E-02
DAV:   5    -0.338040850792E+03    0.30671E-05   -0.51045E-05  6728   0.144E-02
   2 F= -.33804085E+03 E0= -.33804062E+03  d E =-.482590E-01
quench:  g(F)=  0.000E+00 g(S)=  0.000E+00 dE (1.order)= 0.000E+00
 bond charge predicted
       N       E                     dE             d eps       ncg     rms          rms(c)
DAV:   1    -0.338112362179E+03   -0.71508E-01   -0.45608E-01  6376   0.124E+00    0.319E-01
DAV:   2    -0.338109795317E+03    0.25669E-02   -0.31096E-02  7408   0.363E-01    0.196E-01
DAV:   3    -0.338107394002E+03    0.24013E-02   -0.95224E-03  7192   0.193E-01    0.366E-02
DAV:   4    -0.338107511804E+03   -0.11780E-03   -0.18464E-03  6944   0.838E-02    0.290E-02
DAV:   5    -0.338107497301E+03    0.14503E-04   -0.98602E-05  7352   0.198E-02    0.150E-02
DAV:   6    -0.338107498381E+03   -0.10801E-05   -0.21287E-05  4048   0.924E-03
   3 F= -.33810750E+03 E0= -.33810736E+03  d E =-.666476E-01
quench:  g(F)=  0.000E+00 g(S)=  0.000E+00 dE (1.order)= 0.000E+00
 bond charge predicted
       N       E                     dE             d eps       ncg     rms          rms(c)
DAV:   1    -0.338180365368E+03   -0.72868E-01   -0.63939E-01  6264   0.150E+00    0.339E-01
DAV:   2    -0.338178343315E+03    0.20221E-02   -0.41581E-02  7408   0.409E-01    0.205E-01
DAV:   3    -0.338175918591E+03    0.24247E-02   -0.80954E-03  7264   0.178E-01    0.487E-02
DAV:   4    -0.338175981590E+03   -0.62999E-04   -0.17068E-03  7080   0.779E-02    0.314E-02
DAV:   5    -0.338175955091E+03    0.26499E-04   -0.10948E-04  7216   0.212E-02    0.155E-02
DAV:   6    -0.338175947183E+03    0.79074E-05   -0.24658E-05  4424   0.986E-03
   4 F= -.33817595E+03 E0= -.33817581E+03  d E =-.684488E-01
quench:  g(F)=  0.000E+00 g(S)=  0.000E+00 dE (1.order)= 0.000E+00
 bond charge predicted
       N       E                     dE             d eps       ncg     rms          rms(c)
DAV:   1    -0.338242480473E+03   -0.66525E-01   -0.80417E-01  6136   0.170E+00    0.252E-01
DAV:   2    -0.338246301001E+03   -0.38205E-02   -0.50134E-02  7344   0.447E-01    0.170E-01
DAV:   3    -0.338245562485E+03    0.73852E-03   -0.19490E-03  7256   0.104E-01    0.746E-02
DAV:   4    -0.338245529868E+03    0.32617E-04   -0.81073E-04  7208   0.510E-02    0.214E-02
DAV:   5    -0.338245524378E+03    0.54905E-05   -0.81168E-05  7160   0.200E-02
   5 F= -.33824552E+03 E0= -.33824539E+03  d E =-.695772E-01
quench:  g(F)=  0.000E+00 g(S)=  0.000E+00 dE (1.order)= 0.000E+00
 bond charge predicted
       N       E                     dE             d eps       ncg     rms          rms(c)
DAV:   1    -0.338301886606E+03   -0.56357E-01   -0.81736E-01  6168   0.173E+00    0.247E-01
DAV:   2    -0.338305765690E+03   -0.38791E-02   -0.48359E-02  7328   0.446E-01    0.167E-01
DAV:   3    -0.338305174580E+03    0.59111E-03   -0.19251E-03  7200   0.106E-01    0.747E-02
DAV:   4    -0.338305184737E+03   -0.10157E-04   -0.88355E-04  7352   0.539E-02    0.224E-02
DAV:   5    -0.338305174093E+03    0.10644E-04   -0.98504E-05  7288   0.221E-02    0.867E-03
DAV:   6    -0.338305177544E+03   -0.34508E-05   -0.26087E-05  4760   0.972E-03
   6 F= -.33830518E+03 E0= -.33830501E+03  d E =-.596532E-01
quench:  g(F)=  0.000E+00 g(S)=  0.000E+00 dE (1.order)= 0.000E+00
 bond charge predicted
       N       E                     dE             d eps       ncg     rms          rms(c)
DAV:   1    -0.338350275831E+03   -0.45102E-01   -0.88288E-01  6136   0.181E+00    0.258E-01
DAV:   2    -0.338354135304E+03   -0.38595E-02   -0.49342E-02  7352   0.448E-01    0.170E-01
DAV:   3    -0.338353649175E+03    0.48613E-03   -0.18259E-03  7312   0.102E-01    0.752E-02
DAV:   4    -0.338353647856E+03    0.13197E-05   -0.65112E-04  7256   0.464E-02    0.224E-02
DAV:   5    -0.338353643133E+03    0.47224E-05   -0.63366E-05  6408   0.182E-02
   7 F= -.33835364E+03 E0= -.33835349E+03  d E =-.484656E-01
quench:  g(F)=  0.000E+00 g(S)=  0.000E+00 dE (1.order)= 0.000E+00
 bond charge predicted
       N       E                     dE             d eps       ncg     rms          rms(c)
DAV:   1    -0.338384023614E+03   -0.30376E-01   -0.84561E-01  6208   0.179E+00    0.237E-01
DAV:   2    -0.338388092563E+03   -0.40689E-02   -0.45741E-02  7336   0.436E-01    0.164E-01
DAV:   3    -0.338387748537E+03    0.34403E-03   -0.14290E-03  7264   0.939E-02    0.790E-02
DAV:   4    -0.338387742533E+03    0.60049E-05   -0.61857E-04  7312   0.460E-02    0.196E-02
DAV:   5    -0.338387727580E+03    0.14953E-04   -0.73974E-05  7096   0.194E-02    0.715E-03
DAV:   6    -0.338387726600E+03    0.97924E-06   -0.19777E-05  4368   0.852E-03
   8 F= -.33838773E+03 E0= -.33838754E+03  d E =-.340835E-01
quench:  g(F)=  0.000E+00 g(S)=  0.000E+00 dE (1.order)= 0.000E+00
 bond charge predicted
       N       E                     dE             d eps       ncg     rms          rms(c)
DAV:   1    -0.338399631571E+03   -0.11904E-01   -0.55607E-01  6168   0.145E+00    0.185E-01
DAV:   2    -0.338402773752E+03   -0.31422E-02   -0.33639E-02  7360   0.369E-01    0.137E-01
DAV:   3    -0.338402525065E+03    0.24869E-03   -0.84659E-04  7280   0.716E-02    0.757E-02
DAV:   4    -0.338402482929E+03    0.42136E-04   -0.52914E-04  7272   0.442E-02    0.131E-02
DAV:   5    -0.338402482444E+03    0.48480E-06   -0.94435E-05  7160   0.206E-02
   9 F= -.33840248E+03 E0= -.33840235E+03  d E =-.147558E-01
quench:  g(F)=  0.000E+00 g(S)=  0.000E+00 dE (1.order)= 0.000E+00
 bond charge predicted
       N       E                     dE             d eps       ncg     rms          rms(c)
DAV:   1    -0.338407928497E+03   -0.54456E-02   -0.45015E-02  6536   0.395E-01    0.723E-02
DAV:   2    -0.338408053200E+03   -0.12470E-03   -0.30508E-03  7096   0.114E-01    0.533E-02
DAV:   3    -0.338407912335E+03    0.14086E-03   -0.40418E-04  7080   0.438E-02    0.700E-03
DAV:   4    -0.338407921858E+03   -0.95229E-05   -0.87088E-05  6576   0.173E-02
  10 F= -.33840792E+03 E0= -.33840779E+03  d E =-.543941E-02
quench:  g(F)=  0.000E+00 g(S)=  0.000E+00 dE (1.order)= 0.000E+00
 bond charge predicted
       N       E                     dE             d eps       ncg     rms          rms(c)
DAV:   1    -0.338412004000E+03   -0.40917E-02   -0.61311E-02  6384   0.465E-01    0.870E-02
DAV:   2    -0.338412131774E+03   -0.12777E-03   -0.38743E-03  7256   0.131E-01    0.613E-02
DAV:   3    -0.338411953722E+03    0.17805E-03   -0.57648E-04  7104   0.516E-02    0.849E-03
DAV:   4    -0.338411964438E+03   -0.10715E-04   -0.11921E-04  6848   0.208E-02    0.695E-03
DAV:   5    -0.338411963752E+03    0.68580E-06   -0.37580E-06  3648   0.442E-03
  11 F= -.33841196E+03 E0= -.33841182E+03  d E =-.404189E-02
quench:  g(F)=  0.000E+00 g(S)=  0.000E+00 dE (1.order)= 0.000E+00
 bond charge predicted
       N       E                     dE             d eps       ncg     rms          rms(c)
DAV:   1    -0.338416191200E+03   -0.42268E-02   -0.34358E-02  6160   0.359E-01    0.559E-02
DAV:   2    -0.338416288750E+03   -0.97549E-04   -0.16059E-03  7360   0.852E-02    0.377E-02
DAV:   3    -0.338416253062E+03    0.35688E-04   -0.12474E-04  7112   0.247E-02    0.950E-03
DAV:   4    -0.338416254300E+03   -0.12382E-05   -0.29590E-05  4856   0.103E-02
  12 F= -.33841625E+03 E0= -.33841612E+03  d E =-.429055E-02
quench:  g(F)=  0.000E+00 g(S)=  0.000E+00 dE (1.order)= 0.000E+00
 bond charge predicted
       N       E                     dE             d eps       ncg     rms          rms(c)
DAV:   1    -0.338420723875E+03   -0.44708E-02   -0.45145E-02  6080   0.413E-01    0.671E-02
DAV:   2    -0.338420817071E+03   -0.93196E-04   -0.19571E-03  7368   0.943E-02    0.435E-02
DAV:   3    -0.338420779007E+03    0.38065E-04   -0.18129E-04  7192   0.287E-02    0.106E-02
DAV:   4    -0.338420782449E+03   -0.34420E-05   -0.36775E-05  5384   0.118E-02
  13 F= -.33842078E+03 E0= -.33842066E+03  d E =-.452815E-02
quench:  g(F)=  0.000E+00 g(S)=  0.000E+00 dE (1.order)= 0.000E+00
 bond charge predicted
       N       E                     dE             d eps       ncg     rms          rms(c)
DAV:   1    -0.338425091262E+03   -0.43123E-02   -0.58358E-02  6104   0.471E-01    0.696E-02
DAV:   2    -0.338425270417E+03   -0.17916E-03   -0.23703E-03  7352   0.104E-01    0.467E-02
DAV:   3    -0.338425241449E+03    0.28968E-04   -0.12588E-04  7128   0.253E-02    0.131E-02
DAV:   4    -0.338425240775E+03    0.67417E-06   -0.26507E-05  4912   0.101E-02
  14 F= -.33842524E+03 E0= -.33842513E+03  d E =-.445833E-02
quench:  g(F)=  0.000E+00 g(S)=  0.000E+00 dE (1.order)= 0.000E+00
 bond charge predicted
       N       E                     dE             d eps       ncg     rms          rms(c)
DAV:   1    -0.338429347556E+03   -0.41061E-02   -0.72774E-02  6088   0.523E-01    0.761E-02
DAV:   2    -0.338429592080E+03   -0.24452E-03   -0.29057E-03  7352   0.115E-01    0.514E-02
DAV:   3    -0.338429571931E+03    0.20148E-04   -0.13978E-04  7136   0.268E-02    0.137E-02
DAV:   4    -0.338429576012E+03   -0.40807E-05   -0.26221E-05  4880   0.102E-02
  15 F= -.33842958E+03 E0= -.33842947E+03  d E =-.433524E-02
quench:  g(F)=  0.000E+00 g(S)=  0.000E+00 dE (1.order)= 0.000E+00
 bond charge predicted
       N       E                     dE             d eps       ncg     rms          rms(c)
DAV:   1    -0.338433158994E+03   -0.35871E-02   -0.85492E-02  6096   0.568E-01    0.831E-02
DAV:   2    -0.338433427298E+03   -0.26830E-03   -0.32479E-03  7344   0.123E-01    0.559E-02
DAV:   3    -0.338433405151E+03    0.22147E-04   -0.16381E-04  7208   0.284E-02    0.133E-02
DAV:   4    -0.338433409799E+03   -0.46479E-05   -0.25927E-05  4840   0.103E-02
  16 F= -.33843341E+03 E0= -.33843330E+03  d E =-.383379E-02
quench:  g(F)=  0.000E+00 g(S)=  0.000E+00 dE (1.order)= 0.000E+00
 bond charge predicted
       N       E                     dE             d eps       ncg     rms          rms(c)
DAV:   1    -0.338436333258E+03   -0.29281E-02   -0.97729E-02  6080   0.604E-01    0.865E-02
DAV:   2    -0.338436660414E+03   -0.32716E-03   -0.38439E-03  7360   0.133E-01    0.590E-02
DAV:   3    -0.338436629071E+03    0.31343E-04   -0.18870E-04  7216   0.306E-02    0.145E-02
DAV:   4    -0.338436630805E+03   -0.17346E-05   -0.30064E-05  4936   0.109E-02
  17 F= -.33843663E+03 E0= -.33843653E+03  d E =-.322101E-02
quench:  g(F)=  0.000E+00 g(S)=  0.000E+00 dE (1.order)= 0.000E+00
 bond charge predicted
       N       E                     dE             d eps       ncg     rms          rms(c)
DAV:   1    -0.338438290063E+03   -0.16610E-02   -0.96023E-02  6096   0.602E-01    0.832E-02
DAV:   2    -0.338438636796E+03   -0.34673E-03   -0.38410E-03  7344   0.132E-01    0.573E-02
DAV:   3    -0.338438618009E+03    0.18788E-04   -0.15045E-04  7144   0.276E-02    0.167E-02
DAV:   4    -0.338438621372E+03   -0.33637E-05   -0.21691E-05  4616   0.934E-03
  18 F= -.33843862E+03 E0= -.33843852E+03  d E =-.199057E-02
quench:  g(F)=  0.000E+00 g(S)=  0.000E+00 dE (1.order)= 0.000E+00
 bond charge predicted
       N       E                     dE             d eps       ncg     rms          rms(c)
DAV:   1    -0.338439078578E+03   -0.46057E-03   -0.23126E-02  6560   0.288E-01    0.332E-02
DAV:   2    -0.338439234513E+03   -0.15593E-03   -0.16181E-03  7320   0.797E-02    0.279E-02
DAV:   3    -0.338439222921E+03    0.11592E-04   -0.36400E-05  5712   0.145E-02    0.189E-02
DAV:   4    -0.338439215763E+03    0.71581E-05   -0.49599E-05  6128   0.138E-02
  19 F= -.33843922E+03 E0= -.33843912E+03  d E =-.594390E-03
quench:  g(F)=  0.000E+00 g(S)=  0.000E+00 dE (1.order)= 0.000E+00
 bond charge predicted
       N       E                     dE             d eps       ncg     rms          rms(c)
DAV:   1    -0.338439353849E+03   -0.13093E-03   -0.79849E-04  6576   0.507E-02    0.128E-02
DAV:   2    -0.338439351098E+03    0.27509E-05   -0.58792E-05  6680   0.165E-02
  20 F= -.33843935E+03 E0= -.33843925E+03  d E =-.135335E-03
quench:  g(F)=  0.000E+00 g(S)=  0.000E+00 dE (1.order)= 0.000E+00
 bond charge predicted
       N       E                     dE             d eps       ncg     rms          rms(c)
DAV:   1    -0.338439504834E+03   -0.15099E-03   -0.18943E-03  6576   0.795E-02    0.195E-02
DAV:   2    -0.338439499090E+03    0.57434E-05   -0.11316E-04  7264   0.228E-02    0.127E-02
DAV:   3    -0.338439490055E+03    0.90355E-05   -0.36100E-05  5888   0.123E-02
  21 F= -.33843949E+03 E0= -.33843939E+03  d E =-.138957E-03
quench:  g(F)=  0.000E+00 g(S)=  0.000E+00 dE (1.order)= 0.000E+00
 reached required accuracy - stopping structural energy minimisation
 writing wavefunctions
