 running on   20 total cores
 distrk:  each k-point on   20 cores,    1 groups
 distr:  one band on    1 cores,   20 groups
 using from now: INCAR     
 vasp.5.4.1 05Feb16 (build Sep 02 2018 21:45:25) complex                        
  
 POSCAR found type information on POSCAR  Li H 
 POSCAR found :  2 types and       8 ions
 scaLAPACK will be used

 ----------------------------------------------------------------------------- 
|                                                                             |
|           W    W    AA    RRRRR   N    N  II  N    N   GGGG   !!!           |
|           W    W   A  A   R    R  NN   N  II  NN   N  G    G  !!!           |
|           W    W  A    A  R    R  N N  N  II  N N  N  G       !!!           |
|           W WW W  AAAAAA  RRRRR   N  N N  II  N  N N  G  GGG   !            |
|           WW  WW  A    A  R   R   N   NN  II  N   NN  G    G                |
|           W    W  A    A  R    R  N    N  II  N    N   GGGG   !!!           |
|                                                                             |
|      For optimal performance we recommend to set                            |
|        NCORE= 4 - approx SQRT( number of cores)                             |
|      NCORE specifies how many cores store one orbital (NPAR=cpu/NCORE).     |
|      This setting can  greatly improve the performance of VASP for DFT.     |
|      The default, NPAR=number of cores might be grossly inefficient         |
|      on modern multi-core architectures or massively parallel machines.     |
|      Do your own testing !!!!                                               |
|      Unfortunately you need to use the default for GW and RPA calculations. |
|      (for HF NCORE is supported but not extensively tested yet)             |
|                                                                             |
 ----------------------------------------------------------------------------- 

 LDA part: xc-table for Ceperly-Alder, standard interpolation
 POSCAR, INCAR and KPOINTS ok, starting setup
 WARNING: small aliasing (wrap around) errors must be expected
 FFT: planning ...
 WAVECAR not read
 entering main loop
       N       E                     dE             d eps       ncg     rms          rms(c)
DAV:   1    -0.109168849226E+02   -0.10917E+02   -0.22640E+03  1400   0.249E+02
DAV:   2    -0.208962159351E+02   -0.99793E+01   -0.99793E+01  2100   0.243E+01
DAV:   3    -0.212398720575E+02   -0.34366E+00   -0.34366E+00  1460   0.586E+00
DAV:   4    -0.212405443014E+02   -0.67224E-03   -0.67224E-03  2140   0.279E-01
DAV:   5    -0.212405448389E+02   -0.53753E-06   -0.53753E-06  1480   0.616E-03    0.556E+00
DAV:   6    -0.199942894961E+02    0.12463E+01   -0.22442E+00  1400   0.250E+00    0.216E+00
DAV:   7    -0.198133758533E+02    0.18091E+00   -0.13005E+00  1400   0.224E+00    0.725E-01
DAV:   8    -0.198533513772E+02   -0.39976E-01   -0.65787E-02  1400   0.587E-01    0.248E-01
DAV:   9    -0.198510436646E+02    0.23077E-02   -0.85882E-03  1680   0.176E-01    0.370E-02
DAV:  10    -0.198511138689E+02   -0.70204E-04   -0.78999E-04  1480   0.743E-02    0.323E-02
DAV:  11    -0.198511156398E+02   -0.17708E-05   -0.87569E-05  1460   0.174E-02
   1 F= -.19851116E+02 E0= -.19851116E+02  d E =-.198511E+02
 curvature:   0.00 expect dE= 0.000E+00 dE for cont linesearch  0.000E+00
 trial: gam= 0.00000 g(F)=  0.736E-63 g(S)=  0.209E+00 ort = 0.000E+00 (trialstep = 0.100E+01)
 search vector abs. value=  0.209E+00
 bond charge predicted
       N       E                     dE             d eps       ncg     rms          rms(c)
DAV:   1    -0.200616646223E+02   -0.21055E+00   -0.68238E-02  1400   0.857E-01    0.262E-01
DAV:   2    -0.200598277169E+02    0.18369E-02   -0.35367E-03  1660   0.118E-01    0.114E-01
DAV:   3    -0.200595146340E+02    0.31308E-03   -0.20457E-03  1400   0.891E-02    0.781E-03
DAV:   4    -0.200595214562E+02   -0.68222E-05   -0.62295E-05  1440   0.261E-02
   2 F= -.20059521E+02 E0= -.20059521E+02  d E =-.208406E+00
 ZBRENT: can't locate minimum, use default step
 trial-energy change:   -0.208406  1 .order   -0.207521   -0.208587   -0.206456
 step:   4.0000(harm= 97.8922)  dis= 0.00000  next Energy=   -30.060624 (dE=-0.102E+02)
 bond charge predicted
       N       E                     dE             d eps       ncg     rms          rms(c)
DAV:   1    -0.207021269401E+02   -0.64261E+00   -0.64529E-01  1400   0.273E+00    0.794E-01
DAV:   2    -0.206856951928E+02    0.16432E-01   -0.30235E-02  1660   0.353E-01    0.353E-01
DAV:   3    -0.206827616056E+02    0.29336E-02   -0.18149E-02  1480   0.268E-01    0.236E-02
DAV:   4    -0.206828111372E+02   -0.49532E-04   -0.49749E-04  1440   0.762E-02    0.122E-02
DAV:   5    -0.206828227697E+02   -0.11632E-04   -0.13800E-05  1720   0.146E-02    0.161E-03
DAV:   6    -0.206828236434E+02   -0.87367E-06   -0.56936E-07   700   0.268E-03
   3 F= -.20682824E+02 E0= -.20682824E+02  d E =-.831708E+00
 curvature:  -2.98 expect dE=-0.568E+00 dE for cont linesearch -0.568E+00
 ZBRENT: increasing intervall
 opt :  10.0000  next Energy=   -21.835974 (dE=-0.198E+01)
 bond charge predicted
       N       E                     dE             d eps       ncg     rms          rms(c)
DAV:   1    -0.219802605024E+02   -0.12974E+01   -0.27953E+00  1400   0.607E+00    0.162E+00
DAV:   2    -0.219149374877E+02    0.65323E-01   -0.10818E-01  1720   0.699E-01    0.744E-01
DAV:   3    -0.219020749798E+02    0.12863E-01   -0.69494E-02  1580   0.531E-01    0.478E-02
DAV:   4    -0.219022374150E+02   -0.16244E-03   -0.15223E-03  1440   0.142E-01    0.239E-02
DAV:   5    -0.219022706563E+02   -0.33241E-04   -0.38188E-05  1760   0.278E-02    0.334E-03
DAV:   6    -0.219022725101E+02   -0.18538E-05   -0.18346E-06   800   0.430E-03
   4 F= -.21902273E+02 E0= -.21902273E+02  d E =-.205116E+01
 curvature:  -6.05 expect dE=-0.938E+00 dE for cont linesearch -0.938E+00
 ZBRENT: increasing intervall
 opt :  22.0000  next Energy=   -23.824989 (dE=-0.397E+01)
 bond charge predicted
       N       E                     dE             d eps       ncg     rms          rms(c)
DAV:   1    -0.242902664010E+02   -0.23880E+01   -0.13323E+01  1440   0.151E+01    0.339E+00
DAV:   2    -0.240365923673E+02    0.25367E+00   -0.33197E-01  1720   0.135E+00    0.165E+00
DAV:   3    -0.239806427273E+02    0.55950E-01   -0.23646E-01  1680   0.103E+00    0.108E-01
DAV:   4    -0.239810943360E+02   -0.45161E-03   -0.24417E-03  1520   0.197E-01    0.442E-02
DAV:   5    -0.239811767766E+02   -0.82441E-04   -0.56510E-05  1740   0.449E-02    0.533E-03
DAV:   6    -0.239811787202E+02   -0.19435E-05   -0.24750E-06   840   0.427E-03
   5 F= -.23981179E+02 E0= -.23981179E+02  d E =-.413006E+01
 curvature: -12.41 expect dE=-0.692E+00 dE for cont linesearch -0.692E+00
 ZBRENT: increasing intervall
 opt :  46.0000  next Energy=   -24.843079 (dE=-0.499E+01)
 bond charge predicted
       N       E                     dE             d eps       ncg     rms          rms(c)
DAV:   1    -0.220388777363E+02    0.19423E+01   -0.85721E+01  1700   0.498E+01    0.815E+00
DAV:   2    -0.210736116408E+02    0.96527E+00   -0.83416E-01  1880   0.287E+00    0.433E+00
DAV:   3    -0.208194914949E+02    0.25412E+00   -0.63480E-01  1780   0.217E+00    0.334E-01
DAV:   4    -0.208215068444E+02   -0.20153E-02   -0.25181E-03  1760   0.241E-01    0.783E-02
DAV:   5    -0.208214110082E+02    0.95836E-04   -0.23488E-04  1660   0.671E-02    0.614E-03
DAV:   6    -0.208214104735E+02    0.53465E-06   -0.36446E-06  1060   0.897E-03
   6 F= -.20821410E+02 E0= -.20821410E+02  d E =-.970295E+00
 curvature: -15.46 expect dE=-0.112E+02 dE for cont linesearch -0.112E+02
 ZBRENT: bracketing found
 ZBRENT: interpolating
 opt :  27.2154  next Energy=   -24.262404 (dE=-0.441E+01)
 bond charge predicted
       N       E                     dE             d eps       ncg     rms          rms(c)
DAV:   1    -0.250680638338E+02   -0.42467E+01   -0.28757E+01  1900   0.191E+01    0.458E+00
DAV:   2    -0.246926745559E+02    0.37539E+00   -0.34094E-01  1640   0.168E+00    0.242E+00
DAV:   3    -0.245382241953E+02    0.15445E+00   -0.50070E-01  1680   0.151E+00    0.168E-01
DAV:   4    -0.245382664817E+02   -0.42286E-04   -0.65829E-03  1480   0.311E-01    0.615E-02
DAV:   5    -0.245374423292E+02    0.82415E-03   -0.41754E-04  1660   0.699E-02    0.329E-02
DAV:   6    -0.245374092331E+02    0.33096E-04   -0.14145E-04  1880   0.366E-02    0.672E-03
DAV:   7    -0.245373877803E+02    0.21453E-04   -0.43343E-06  1520   0.863E-03    0.812E-04
DAV:   8    -0.245373871481E+02    0.63224E-06   -0.31749E-08   720   0.735E-04
   7 F= -.24537387E+02 E0= -.24537387E+02  d E =-.468627E+01
 curvature:  -0.39 expect dE=-0.563E-02 dE for cont linesearch -0.563E-02
 ZBRENT: interpolating
 opt :  31.9614  next Energy=   -24.683934 (dE=-0.483E+01)
 bond charge predicted
       N       E                     dE             d eps       ncg     rms          rms(c)
DAV:   1    -0.247269568391E+02   -0.18957E+00   -0.23015E+00  1560   0.657E+00    0.133E+00
DAV:   2    -0.246965853291E+02    0.30372E-01   -0.31627E-02  1740   0.515E-01    0.690E-01
DAV:   3    -0.246883201219E+02    0.82652E-02   -0.30612E-02  1700   0.402E-01    0.366E-02
DAV:   4    -0.246884017732E+02   -0.81651E-04   -0.22920E-04  1480   0.669E-02    0.164E-02
DAV:   5    -0.246884121578E+02   -0.10385E-04   -0.87449E-06  1640   0.156E-02    0.210E-03
DAV:   6    -0.246884101664E+02    0.19914E-05   -0.25649E-07   720   0.254E-03
   8 F= -.24688410E+02 E0= -.24688410E+02  d E =-.483729E+01
 curvature: -10.12 expect dE=-0.613E-02 dE for cont linesearch -0.613E-02
 ZBRENT: interpolating
 opt :  31.1556  next Energy=   -24.692939 (dE=-0.484E+01)
 bond charge predicted
       N       E                     dE             d eps       ncg     rms          rms(c)
DAV:   1    -0.246949286883E+02   -0.65165E-02   -0.63306E-02  1580   0.105E+00    0.219E-01
DAV:   2    -0.246942005978E+02    0.72809E-03   -0.82255E-04  1720   0.871E-02    0.114E-01
DAV:   3    -0.246939473771E+02    0.25322E-03   -0.89307E-04  1680   0.686E-02    0.563E-03
DAV:   4    -0.246939441749E+02    0.32022E-05   -0.81569E-06  1120   0.124E-02
   9 F= -.24693944E+02 E0= -.24693944E+02  d E =-.484283E+01
 curvature:  -7.48 expect dE=-0.665E-04 dE for cont linesearch -0.665E-04
 trial: gam=-0.00649 g(F)=  0.275E-63 g(S)=  0.889E-05 ort = 0.136E-02 (trialstep = 0.703E+01)
 search vector abs. value=  0.479E-09
 reached required accuracy - stopping structural energy minimisation
