 running on   30 total cores
 distrk:  each k-point on   30 cores,    1 groups
 distr:  one band on    1 cores,   30 groups
 using from now: INCAR     
 vasp.5.4.1 24Jun15 (build Oct 26 2018 17:15:27) complex                        
  
 POSCAR found type information on POSCAR  Si
 POSCAR found :  1 types and      63 ions
 scaLAPACK will be used

 ----------------------------------------------------------------------------- 
|                                                                             |
|           W    W    AA    RRRRR   N    N  II  N    N   GGGG   !!!           |
|           W    W   A  A   R    R  NN   N  II  NN   N  G    G  !!!           |
|           W    W  A    A  R    R  N N  N  II  N N  N  G       !!!           |
|           W WW W  AAAAAA  RRRRR   N  N N  II  N  N N  G  GGG   !            |
|           WW  WW  A    A  R   R   N   NN  II  N   NN  G    G                |
|           W    W  A    A  R    R  N    N  II  N    N   GGGG   !!!           |
|                                                                             |
|      For optimal performance we recommend to set                            |
|        NCORE= 4 - approx SQRT( number of cores)                             |
|      NCORE specifies how many cores store one orbital (NPAR=cpu/NCORE).     |
|      This setting can  greatly improve the performance of VASP for DFT.     |
|      The default, NPAR=number of cores might be grossly inefficient         |
|      on modern multi-core architectures or massively parallel machines.     |
|      Do your own testing !!!!                                               |
|      Unfortunately you need to use the default for GW and RPA calculations. |
|      (for HF NCORE is supported but not extensively tested yet)             |
|                                                                             |
 ----------------------------------------------------------------------------- 

 LDA part: xc-table for Ceperly-Alder, standard interpolation

 ----------------------------------------------------------------------------- 
|                                                                             |
|           W    W    AA    RRRRR   N    N  II  N    N   GGGG   !!!           |
|           W    W   A  A   R    R  NN   N  II  NN   N  G    G  !!!           |
|           W    W  A    A  R    R  N N  N  II  N N  N  G       !!!           |
|           W WW W  AAAAAA  RRRRR   N  N N  II  N  N N  G  GGG   !            |
|           WW  WW  A    A  R   R   N   NN  II  N   NN  G    G                |
|           W    W  A    A  R    R  N    N  II  N    N   GGGG   !!!           |
|                                                                             |
|      VASP found    186 degrees of freedom                                   |
|      the temperature will equal 2*E(kin)/ (degrees of freedom)              |
|      this differs from previous releases, where T was 2*E(kin)/(3 NIONS).   |
|      The new definition is more consistent                                  |
|                                                                             |
 ----------------------------------------------------------------------------- 

 POSCAR, INCAR and KPOINTS ok, starting setup
 WARNING: small aliasing (wrap around) errors must be expected
 FFT: planning ...
 WAVECAR not read
 prediction of wavefunctions initialized - no I/O
 entering main loop
       N       E                     dE             d eps       ncg     rms          rms(c)
RMM:   1     0.107299098762E+04    0.10730E+04   -0.50032E+04   180   0.623E+02
RMM:   2     0.323010794707E+02   -0.10407E+04   -0.10309E+04   180   0.139E+02
RMM:   3    -0.209994312511E+03   -0.24230E+03   -0.24671E+03   180   0.568E+01
RMM:   4    -0.289480371487E+03   -0.79486E+02   -0.68099E+02   180   0.351E+01
RMM:   5    -0.320137354442E+03   -0.30657E+02   -0.25565E+02   180   0.191E+01
RMM:   6    -0.331241445033E+03   -0.11104E+02   -0.96463E+01   180   0.121E+01
RMM:   7    -0.335350642383E+03   -0.41092E+01   -0.37981E+01   180   0.702E+00
RMM:   8    -0.337021377609E+03   -0.16707E+01   -0.15303E+01   180   0.445E+00
RMM:   9    -0.338109674678E+03   -0.10883E+01   -0.10412E+01   385   0.264E+00
RMM:  10    -0.338210455505E+03   -0.10078E+00   -0.79421E-01   393   0.695E-01
RMM:  11    -0.338217404238E+03   -0.69487E-02   -0.47921E-02   383   0.164E-01
RMM:  12    -0.338217605341E+03   -0.20110E-03   -0.17369E-03   360   0.376E-02    0.171E+01
RMM:  13    -0.334155082660E+03    0.40625E+01   -0.29047E+00   360   0.217E+00    0.102E+01
RMM:  14    -0.332383453568E+03    0.17716E+01   -0.43457E+00   360   0.288E+00    0.131E+00
RMM:  15    -0.332421459561E+03   -0.38006E-01   -0.15423E-01   360   0.601E-01    0.579E-01
RMM:  16    -0.332433783140E+03   -0.12324E-01   -0.48024E-02   360   0.317E-01    0.128E-01
RMM:  17    -0.332433654718E+03    0.12842E-03   -0.33265E-03   360   0.917E-02    0.799E-02
RMM:  18    -0.332433995447E+03   -0.34073E-03   -0.63617E-04   360   0.381E-02    0.364E-02
RMM:  19    -0.332434050732E+03   -0.55285E-04   -0.14334E-04   356   0.181E-02    0.138E-02
RMM:  20    -0.332434067235E+03   -0.16503E-04   -0.51520E-05   313   0.101E-02    0.784E-03
RMM:  21    -0.332434076783E+03   -0.95480E-05   -0.21734E-05   239   0.687E-03
    1 T=     0. E= -.33240930E+03 F= -.33243408E+03 E0= -.33235639E+03  EK= 0.21336E-03 SP= 0.00E+00 SK= 0.25E-01
 bond charge predicted
       N       E                     dE             d eps       ncg     rms          rms(c)
RMM:   1    -0.332435722426E+03   -0.16552E-02   -0.25644E-03   360   0.792E-02    0.123E-02
RMM:   2    -0.332435723461E+03   -0.10345E-05   -0.52380E-05   293   0.126E-02    0.723E-03
RMM:   3    -0.332435723890E+03   -0.42943E-06   -0.56167E-06   220   0.481E-03    0.314E-03
RMM:   4    -0.332435724321E+03   -0.43140E-06   -0.16667E-06   217   0.256E-03
    2 T=     0. E= -.33241111E+03 F= -.33243572E+03 E0= -.33235802E+03  EK= 0.18713E-02 SP= -.20E+00 SK= 0.22E+00
 bond charge predicted
 prediction of wavefunctions
       N       E                     dE             d eps       ncg     rms          rms(c)
RMM:   1    -0.332438644040E+03   -0.29202E-02   -0.23054E-03   360   0.750E-02    0.318E-03
RMM:   2    -0.332438648270E+03   -0.42291E-05   -0.58801E-05   287   0.119E-02    0.213E-03
RMM:   3    -0.332438648495E+03   -0.22578E-06   -0.43604E-06   215   0.439E-03    0.139E-03
RMM:   4    -0.332438648548E+03   -0.52571E-07   -0.82724E-07   175   0.207E-03
    3 T=     1. E= -.33241446E+03 F= -.33243865E+03 E0= -.33236091E+03  EK= 0.49822E-02 SP= -.60E+00 SK= 0.61E+00
 bond charge predicted
 prediction of wavefunctions
       N       E                     dE             d eps       ncg     rms          rms(c)
RMM:   1    -0.332442418116E+03   -0.37696E-02   -0.19829E-04   364   0.190E-02    0.560E-03
RMM:   2    -0.332442416663E+03    0.14533E-05   -0.11091E-05   233   0.530E-03    0.276E-03
RMM:   3    -0.332442416499E+03    0.16408E-06   -0.41378E-06   224   0.293E-03    0.790E-04
RMM:   4    -0.332442416481E+03    0.17316E-07   -0.61986E-07   130   0.152E-03
    4 T=     1. E= -.33241901E+03 F= -.33244242E+03 E0= -.33236462E+03  EK= 0.92890E-02 SP= -.12E+01 SK= 0.12E+01
 bond charge predicted
 prediction of wavefunctions
       N       E                     dE             d eps       ncg     rms          rms(c)
RMM:   1    -0.332446614823E+03   -0.41983E-02   -0.39800E-04   349   0.160E-02    0.218E-03
RMM:   2    -0.332446616371E+03   -0.15486E-05   -0.18561E-05   245   0.580E-03    0.137E-03
RMM:   3    -0.332446616588E+03   -0.21649E-06   -0.30395E-06   211   0.282E-03    0.856E-04
RMM:   4    -0.332446616567E+03    0.20669E-07   -0.86746E-07   149   0.169E-03
    5 T=     2. E= -.33242420E+03 F= -.33244662E+03 E0= -.33236875E+03  EK= 0.14623E-01 SP= -.20E+01 SK= 0.20E+01
Information: wavefunction orthogonal band  178  0.8986
 bond charge predicted
 prediction of wavefunctions
       N       E                     dE             d eps       ncg     rms          rms(c)
RMM:   1    -0.332450876957E+03   -0.42604E-02   -0.34732E-04   344   0.140E-02    0.166E-03
RMM:   2    -0.332450878562E+03   -0.16049E-05   -0.16170E-05   241   0.516E-03    0.109E-03
RMM:   3    -0.332450878811E+03   -0.24926E-06   -0.22965E-06   185   0.247E-03    0.685E-04
RMM:   4    -0.332450878950E+03   -0.13888E-06   -0.67088E-07   133   0.159E-03
    6 T=     3. E= -.33242909E+03 F= -.33245088E+03 E0= -.33237292E+03  EK= 0.21246E-01 SP= -.30E+01 SK= 0.30E+01
Information: wavefunction orthogonal band  180  0.8508
 bond charge predicted
 prediction of wavefunctions
       N       E                     dE             d eps       ncg     rms          rms(c)
RMM:   1    -0.332455720481E+03   -0.48417E-02   -0.60317E-04   351   0.179E-02    0.135E-03
RMM:   2    -0.332455723318E+03   -0.28372E-05   -0.30539E-05   260   0.680E-03    0.715E-04
RMM:   3    -0.332455723600E+03   -0.28247E-06   -0.32134E-06   207   0.298E-03    0.412E-04
RMM:   4    -0.332455723665E+03   -0.65159E-07   -0.90093E-07   154   0.175E-03
    7 T=     4. E= -.33243317E+03 F= -.33245572E+03 E0= -.33237764E+03  EK= 0.29900E-01 SP= -.42E+01 SK= 0.42E+01
Information: wavefunction orthogonal band  177  0.8899
Information: wavefunction orthogonal band  178  0.8379
 bond charge predicted
 prediction of wavefunctions
       N       E                     dE             d eps       ncg     rms          rms(c)
RMM:   1    -0.332461045952E+03   -0.53224E-02   -0.61254E-04   361   0.190E-02    0.158E-03
RMM:   2    -0.332461048898E+03   -0.29456E-05   -0.30435E-05   260   0.689E-03    0.930E-04
RMM:   3    -0.332461049250E+03   -0.35235E-06   -0.35412E-06   200   0.309E-03    0.500E-04
RMM:   4    -0.332461049367E+03   -0.11668E-06   -0.10826E-06   169   0.185E-03
    8 T=     5. E= -.33243542E+03 F= -.33246105E+03 E0= -.33238283E+03  EK= 0.41430E-01 SP= -.56E+01 SK= 0.55E+01
Information: wavefunction orthogonal band  180  0.8902
 bond charge predicted
 prediction of wavefunctions
       N       E                     dE             d eps       ncg     rms          rms(c)
RMM:   1    -0.332466759734E+03   -0.57105E-02   -0.63800E-04   358   0.205E-02    0.168E-03
RMM:   2    -0.332466763413E+03   -0.36796E-05   -0.37723E-05   272   0.688E-03    0.103E-03
RMM:   3    -0.332466763700E+03   -0.28675E-06   -0.27872E-06   194   0.282E-03    0.615E-04
RMM:   4    -0.332466763791E+03   -0.90755E-07   -0.67280E-07   143   0.169E-03
    9 T=     7. E= -.33243498E+03 F= -.33246676E+03 E0= -.33238837E+03  EK= 0.56938E-01 SP= -.71E+01 SK= 0.71E+01
 bond charge predicted
 prediction of wavefunctions
       N       E                     dE             d eps       ncg     rms          rms(c)
RMM:   1    -0.332472402807E+03   -0.56391E-02   -0.10148E-03   361   0.273E-02    0.253E-03
RMM:   2    -0.332472408925E+03   -0.61180E-05   -0.62971E-05   287   0.878E-03    0.156E-03
RMM:   3    -0.332472409285E+03   -0.36048E-06   -0.40987E-06   208   0.335E-03    0.105E-03
RMM:   4    -0.332472409388E+03   -0.10303E-06   -0.10864E-06   161   0.193E-03
   10 T=    10. E= -.33243135E+03 F= -.33247241E+03 E0= -.33239382E+03  EK= 0.77384E-01 SP= -.89E+01 SK= 0.89E+01
 bond charge predicted
 prediction of wavefunctions
       N       E                     dE             d eps       ncg     rms          rms(c)
RMM:   1    -0.332476566397E+03   -0.41571E-02   -0.16482E-03   362   0.357E-02    0.334E-03
RMM:   2    -0.332476576612E+03   -0.10215E-04   -0.10445E-04   308   0.111E-02    0.219E-03
RMM:   3    -0.332476577089E+03   -0.47695E-06   -0.51152E-06   217   0.379E-03    0.138E-03
RMM:   4    -0.332476577330E+03   -0.24119E-06   -0.15094E-06   180   0.218E-03
   11 T=    13. E= -.33242380E+03 F= -.33247658E+03 E0= -.33239773E+03  EK= 0.10375E+00 SP= -.11E+02 SK= 0.11E+02
Information: wavefunction orthogonal band  176  0.8690
Information: wavefunction orthogonal band  178  0.8978
Information: wavefunction orthogonal band  179  0.8869
 bond charge predicted
 prediction of wavefunctions
       N       E                     dE             d eps       ncg     rms          rms(c)
RMM:   1    -0.332478064062E+03   -0.14870E-02   -0.16123E-03   361   0.402E-02    0.425E-03
RMM:   2    -0.332478073636E+03   -0.95737E-05   -0.98710E-05   289   0.107E-02    0.286E-03
RMM:   3    -0.332478074179E+03   -0.54276E-06   -0.63456E-06   221   0.417E-03    0.159E-03
RMM:   4    -0.332478074366E+03   -0.18777E-06   -0.17054E-06   179   0.227E-03
   12 T=    17. E= -.33241185E+03 F= -.33247807E+03 E0= -.33239889E+03  EK= 0.13808E+00 SP= -.13E+02 SK= 0.13E+02
Information: wavefunction orthogonal band  175  0.8970
 bond charge predicted
 prediction of wavefunctions
       N       E                     dE             d eps       ncg     rms          rms(c)
RMM:   1    -0.332476183557E+03    0.18906E-02   -0.18540E-03   361   0.444E-02    0.501E-03
RMM:   2    -0.332476194870E+03   -0.11312E-04   -0.11754E-04   305   0.121E-02    0.337E-03
RMM:   3    -0.332476195276E+03   -0.40570E-06   -0.70277E-06   228   0.443E-03    0.145E-03
RMM:   4    -0.332476195409E+03   -0.13338E-06   -0.17595E-06   193   0.239E-03
   13 T=    23. E= -.33239607E+03 F= -.33247620E+03 E0= -.33239652E+03  EK= 0.18359E+00 SP= -.15E+02 SK= 0.15E+02
 bond charge predicted
 prediction of wavefunctions
       N       E                     dE             d eps       ncg     rms          rms(c)
RMM:   1    -0.332469740743E+03    0.64545E-02   -0.27433E-03   362   0.489E-02    0.515E-03
RMM:   2    -0.332469756868E+03   -0.16125E-04   -0.17220E-04   323   0.140E-02    0.306E-03
RMM:   3    -0.332469757532E+03   -0.66384E-06   -0.83277E-06   221   0.455E-03    0.180E-03
RMM:   4    -0.332469757661E+03   -0.12985E-06   -0.20510E-06   197   0.251E-03
   14 T=    31. E= -.33237735E+03 F= -.33246976E+03 E0= -.33238930E+03  EK= 0.24513E+00 SP= -.18E+02 SK= 0.18E+02
Information: wavefunction orthogonal band  177  0.8553
Information: wavefunction orthogonal band  178  0.8970
 bond charge predicted
 prediction of wavefunctions
       N       E                     dE             d eps       ncg     rms          rms(c)
RMM:   1    -0.332455650671E+03    0.14107E-01   -0.25288E-03   361   0.487E-02    0.599E-03
RMM:   2    -0.332455666480E+03   -0.15809E-04   -0.16944E-04   321   0.129E-02    0.316E-03
RMM:   3    -0.332455667378E+03   -0.89793E-06   -0.84692E-06   220   0.427E-03    0.205E-03
RMM:   4    -0.332455667658E+03   -0.28036E-06   -0.15516E-06   188   0.234E-03
   15 T=    41. E= -.33235645E+03 F= -.33245567E+03 E0= -.33237392E+03  EK= 0.32941E+00 SP= -.21E+02 SK= 0.21E+02
 bond charge predicted
 prediction of wavefunctions
       N       E                     dE             d eps       ncg     rms          rms(c)
RMM:   1    -0.332429988196E+03    0.25679E-01   -0.34801E-03   360   0.659E-02    0.858E-03
RMM:   2    -0.332430008940E+03   -0.20744E-04   -0.23709E-04   334   0.160E-02    0.435E-03
RMM:   3    -0.332430009801E+03   -0.86061E-06   -0.95446E-06   227   0.494E-03    0.272E-03
RMM:   4    -0.332430010128E+03   -0.32664E-06   -0.21949E-06   200   0.272E-03
   16 T=    56. E= -.33233541E+03 F= -.33243001E+03 E0= -.33234614E+03  EK= 0.44609E+00 SP= -.24E+02 SK= 0.23E+02
 bond charge predicted
 prediction of wavefunctions
       N       E                     dE             d eps       ncg     rms          rms(c)
RMM:   1    -0.332390084714E+03    0.39925E-01   -0.67148E-03   360   0.975E-02    0.116E-02
RMM:   2    -0.332390126321E+03   -0.41607E-04   -0.45413E-04   365   0.213E-02    0.657E-03
RMM:   3    -0.332390127616E+03   -0.12951E-05   -0.17485E-05   235   0.598E-03    0.414E-03
RMM:   4    -0.332390127603E+03    0.12687E-07   -0.32061E-06   220   0.330E-03
   17 T=    76. E= -.33231857E+03 F= -.33239013E+03 E0= -.33230287E+03  EK= 0.61153E+00 SP= -.27E+02 SK= 0.26E+02
Information: wavefunction orthogonal band  180  0.8334
 bond charge predicted
 prediction of wavefunctions
       N       E                     dE             d eps       ncg     rms          rms(c)
RMM:   1    -0.332329212162E+03    0.60915E-01   -0.10386E-02   360   0.138E-01    0.167E-02
RMM:   2    -0.332329266764E+03   -0.54602E-04   -0.60759E-04   366   0.259E-02    0.974E-03
RMM:   3    -0.332329269476E+03   -0.27123E-05   -0.32907E-05   253   0.785E-03    0.596E-03
RMM:   4    -0.332329270486E+03   -0.10100E-05   -0.50227E-06   225   0.409E-03
   18 T=   106. E= -.33230892E+03 F= -.33232927E+03 E0= -.33223697E+03  EK= 0.85139E+00 SP= -.30E+02 SK= 0.29E+02
Information: wavefunction orthogonal band  179  0.8821
 bond charge predicted
 prediction of wavefunctions
       N       E                     dE             d eps       ncg     rms          rms(c)
RMM:   1    -0.332241183223E+03    0.88086E-01   -0.13068E-02   360   0.173E-01    0.182E-02
RMM:   2    -0.332241257708E+03   -0.74485E-04   -0.71489E-04   382   0.298E-02    0.114E-02
RMM:   3    -0.332241261880E+03   -0.41725E-05   -0.32174E-05   255   0.832E-03    0.695E-03
RMM:   4    -0.332241263399E+03   -0.15186E-05   -0.66378E-06   224   0.463E-03
   19 T=   151. E= -.33231219E+03 F= -.33224126E+03 E0= -.33214222E+03  EK= 0.12083E+01 SP= -.34E+02 SK= 0.32E+02
Information: wavefunction orthogonal band  177  0.8986
 bond charge predicted
 prediction of wavefunctions
       N       E                     dE             d eps       ncg     rms          rms(c)
RMM:   1    -0.332120218467E+03    0.12104E+00   -0.20929E-02   360   0.236E-01    0.256E-02
RMM:   2    -0.332120353696E+03   -0.13523E-03   -0.11110E-03   378   0.384E-02    0.156E-02
RMM:   3    -0.332120359043E+03   -0.53478E-05   -0.50049E-05   291   0.108E-02    0.110E-02
RMM:   4    -0.332120364010E+03   -0.49663E-05   -0.12631E-05   232   0.625E-03
   20 T=   219. E= -.33233275E+03 F= -.33212036E+03 E0= -.33201387E+03  EK= 0.17588E+01 SP= -.37E+02 SK= 0.35E+02
 bond charge predicted
 prediction of wavefunctions
       N       E                     dE             d eps       ncg     rms          rms(c)
RMM:   1    -0.331963919064E+03    0.15644E+00   -0.50362E-02   360   0.388E-01    0.497E-02
RMM:   2    -0.331964243320E+03   -0.32426E-03   -0.28096E-03   382   0.592E-02    0.272E-02
RMM:   3    -0.331964246915E+03   -0.35943E-05   -0.13603E-04   342   0.170E-02    0.181E-02
RMM:   4    -0.331964263580E+03   -0.16665E-04   -0.27906E-05   252   0.920E-03    0.410E-03
RMM:   5    -0.331964263293E+03    0.28731E-06   -0.31796E-06   226   0.361E-03
   21 T=   329. E= -.33237602E+03 F= -.33196426E+03 E0= -.33185292E+03  EK= 0.26380E+01 SP= -.41E+02 SK= 0.38E+02
Information: wavefunction orthogonal band  175  0.8730
Information: wavefunction orthogonal band  178  0.8760
 bond charge predicted
 prediction of wavefunctions
       N       E                     dE             d eps       ncg     rms          rms(c)
RMM:   1    -0.331769467049E+03    0.19480E+00   -0.14370E-01   361   0.689E-01    0.963E-02
RMM:   2    -0.331770167961E+03   -0.70091E-03   -0.70692E-03   379   0.952E-02    0.460E-02
RMM:   3    -0.331770178182E+03   -0.10222E-04   -0.37237E-04   370   0.286E-02    0.308E-02
RMM:   4    -0.331770224304E+03   -0.46122E-04   -0.92289E-05   332   0.150E-02    0.811E-03
RMM:   5    -0.331770222605E+03    0.16993E-05   -0.67141E-06   230   0.471E-03
   22 T=   508. E= -.33244741E+03 F= -.33177022E+03 E0= -.33166350E+03  EK= 0.40742E+01 SP= -.45E+02 SK= 0.40E+02
Information: wavefunction orthogonal band  174  0.8979
 bond charge predicted
 prediction of wavefunctions
       N       E                     dE             d eps       ncg     rms          rms(c)
RMM:   1    -0.331522908003E+03    0.24732E+00   -0.47436E-01   362   0.128E+00    0.180E-01
RMM:   2    -0.331524556437E+03   -0.16484E-02   -0.22514E-02   377   0.164E-01    0.869E-02
RMM:   3    -0.331524705657E+03   -0.14922E-03   -0.11905E-03   385   0.519E-02    0.523E-02
RMM:   4    -0.331524815096E+03   -0.10944E-03   -0.23320E-04   361   0.238E-02    0.154E-02
RMM:   5    -0.331524824025E+03   -0.89287E-05   -0.23094E-05   254   0.897E-03
   23 T=   802. E= -.33255726E+03 F= -.33152482E+03 E0= -.33143559E+03  EK= 0.64259E+01 SP= -.49E+02 SK= 0.42E+02
Information: wavefunction orthogonal band  177  0.8917
Information: wavefunction orthogonal band  180  0.8905
 bond charge predicted
 prediction of wavefunctions
       N       E                     dE             d eps       ncg     rms          rms(c)
RMM:   1    -0.331133018873E+03    0.39180E+00   -0.15041E+00   361   0.238E+00    0.264E-01
RMM:   2    -0.331137685701E+03   -0.46668E-02   -0.50654E-02   374   0.283E-01    0.147E-01
RMM:   3    -0.331138696363E+03   -0.10107E-02   -0.46029E-03   385   0.101E-01    0.635E-02
RMM:   4    -0.331138976764E+03   -0.28040E-03   -0.52942E-04   368   0.373E-02    0.201E-02
RMM:   5    -0.331139017739E+03   -0.40976E-04   -0.75259E-05   299   0.155E-02    0.594E-03
RMM:   6    -0.331139023267E+03   -0.55279E-05   -0.96076E-06   232   0.521E-03
   24 T=  1267. E= -.33271638E+03 F= -.33113902E+03 E0= -.33106126E+03  EK= 0.10155E+02 SP= -.53E+02 SK= 0.41E+02
 bond charge predicted
 prediction of wavefunctions
       N       E                     dE             d eps       ncg     rms          rms(c)
RMM:   1    -0.330305336606E+03    0.83368E+00   -0.49786E+00   361   0.439E+00    0.390E-01
RMM:   2    -0.330323055184E+03   -0.17719E-01   -0.13377E-01   383   0.488E-01    0.226E-01
RMM:   3    -0.330327363549E+03   -0.43084E-02   -0.98266E-03   392   0.163E-01    0.947E-02
RMM:   4    -0.330328356548E+03   -0.99300E-03   -0.11343E-03   368   0.630E-02    0.193E-02
RMM:   5    -0.330328440152E+03   -0.83605E-04   -0.14089E-04   317   0.208E-02    0.103E-02
RMM:   6    -0.330328478693E+03   -0.38541E-04   -0.38744E-05   256   0.907E-03    0.385E-03
RMM:   7    -0.330328486292E+03   -0.75992E-05   -0.78250E-06   232   0.455E-03
   25 T=  1951. E= -.33293024E+03 F= -.33032849E+03 E0= -.33025135E+03  EK= 0.15637E+02 SP= -.57E+02 SK= 0.39E+02
Information: wavefunction orthogonal band  177  0.8534
Information: wavefunction orthogonal band  178  0.8946
 bond charge predicted
 prediction of wavefunctions
       N       E                     dE             d eps       ncg     rms          rms(c)
RMM:   1    -0.328437178533E+03    0.18913E+01   -0.16095E+01   362   0.812E+00    0.624E-01
RMM:   2    -0.328480758052E+03   -0.43580E-01   -0.35287E-01   371   0.826E-01    0.393E-01
RMM:   3    -0.328493031362E+03   -0.12273E-01   -0.36866E-02   390   0.298E-01    0.197E-01
RMM:   4    -0.328497142315E+03   -0.41110E-02   -0.42979E-03   379   0.129E-01    0.579E-02
RMM:   5    -0.328497409158E+03   -0.26684E-03   -0.50247E-04   369   0.465E-02    0.227E-02
RMM:   6    -0.328497413791E+03   -0.46335E-05   -0.80098E-05   307   0.130E-02
   26 T=  2834. E= -.33319151E+03 F= -.32849741E+03 E0= -.32842028E+03  EK= 0.22711E+02 SP= -.61E+02 SK= 0.33E+02
Information: wavefunction orthogonal band  179  0.8857
 bond charge predicted
 prediction of wavefunctions
       N       E                     dE             d eps       ncg     rms          rms(c)
RMM:   1    -0.325108381512E+03    0.33890E+01   -0.56730E+01   361   0.152E+01    0.182E+00
RMM:   2    -0.325017119648E+03    0.91262E-01   -0.19063E+00   361   0.174E+00    0.833E-01
RMM:   3    -0.325040626450E+03   -0.23507E-01   -0.16928E-01   398   0.596E-01    0.511E-01
RMM:   4    -0.325059256307E+03   -0.18630E-01   -0.31573E-02   369   0.280E-01    0.209E-01
RMM:   5    -0.325062880719E+03   -0.36244E-02   -0.49697E-03   376   0.137E-01    0.848E-02
RMM:   6    -0.325062839867E+03    0.40852E-04   -0.11889E-03   370   0.496E-02    0.512E-02
RMM:   7    -0.325062894829E+03   -0.54962E-04   -0.51812E-04   362   0.258E-02    0.286E-02
RMM:   8    -0.325062895481E+03   -0.65167E-06   -0.11166E-04   334   0.163E-02    0.973E-03
RMM:   9    -0.325062867377E+03    0.28104E-04   -0.27179E-05   252   0.844E-03    0.490E-03
RMM:  10    -0.325062853902E+03    0.13475E-04   -0.11499E-05   231   0.486E-03    0.304E-03
RMM:  11    -0.325062849886E+03    0.40162E-05   -0.79401E-06   195   0.356E-03
   27 T=  3845. E= -.33315674E+03 F= -.32506285E+03 E0= -.32491072E+03  EK= 0.30818E+02 SP= -.64E+02 SK= 0.25E+02
Information: wavefunction orthogonal band  180  0.8272
 bond charge predicted
 prediction of wavefunctions
       N       E                     dE             d eps       ncg     rms          rms(c)
RMM:   1    -0.321701133578E+03    0.33617E+01   -0.10958E+02   361   0.208E+01    0.202E+00
RMM:   2    -0.321383729076E+03    0.31740E+00   -0.23566E+00   360   0.213E+00    0.108E+00
RMM:   3    -0.321402094474E+03   -0.18365E-01   -0.23505E-01   394   0.686E-01    0.705E-01
RMM:   4    -0.321429564697E+03   -0.27470E-01   -0.96870E-02   369   0.455E-01    0.191E-01
RMM:   5    -0.321430103326E+03   -0.53863E-03   -0.50101E-03   375   0.138E-01    0.967E-02
RMM:   6    -0.321429765039E+03    0.33829E-03   -0.38291E-03   365   0.743E-02    0.289E-02
RMM:   7    -0.321429774908E+03   -0.98688E-05   -0.14668E-04   341   0.229E-02    0.140E-02
RMM:   8    -0.321429779834E+03   -0.49261E-05   -0.48806E-05   286   0.105E-02
   28 T=  4857. E= -.33385961E+03 F= -.32142978E+03 E0= -.32135254E+03  EK= 0.38926E+02 SP= -.67E+02 SK= 0.16E+02
 bond charge predicted
 prediction of wavefunctions
       N       E                     dE             d eps       ncg     rms          rms(c)
RMM:   1    -0.317382392091E+03    0.40474E+01   -0.17457E+02   362   0.265E+01    0.229E+00
RMM:   2    -0.316581191113E+03    0.80120E+00   -0.33930E+00   361   0.272E+00    0.143E+00
RMM:   3    -0.316570583447E+03    0.10608E-01   -0.37290E-01   399   0.859E-01    0.964E-01
RMM:   4    -0.316592097607E+03   -0.21514E-01   -0.14410E-01   370   0.499E-01    0.305E-01
RMM:   5    -0.316597378093E+03   -0.52805E-02   -0.13574E-02   383   0.222E-01    0.109E-01
RMM:   6    -0.316596928057E+03    0.45004E-03   -0.35698E-03   364   0.792E-02    0.337E-02
RMM:   7    -0.316596952206E+03   -0.24149E-04   -0.26959E-04   367   0.269E-02    0.154E-02
RMM:   8    -0.316596953180E+03   -0.97414E-06   -0.84319E-05   322   0.117E-02
   29 T=  5602. E= -.33394912E+03 F= -.31659695E+03 E0= -.31653194E+03  EK= 0.44896E+02 SP= -.69E+02 SK= 0.67E+01
Information: wavefunction orthogonal band  179  0.8996
 bond charge predicted
 prediction of wavefunctions
       N       E                     dE             d eps       ncg     rms          rms(c)
RMM:   1    -0.314168703099E+03    0.24282E+01   -0.29021E+02   361   0.344E+01    0.257E+00
RMM:   2    -0.312129559356E+03    0.20391E+01   -0.54376E+00   361   0.351E+00    0.225E+00
RMM:   3    -0.312013133234E+03    0.11643E+00   -0.74091E-01   399   0.113E+00    0.168E+00
RMM:   4    -0.311938266583E+03    0.74867E-01   -0.61069E-01   370   0.891E-01    0.488E-01
RMM:   5    -0.311951399806E+03   -0.13133E-01   -0.60984E-02   377   0.375E-01    0.330E-01
RMM:   6    -0.311945077756E+03    0.63221E-02   -0.58743E-03   369   0.118E-01    0.196E-01
RMM:   7    -0.311942607091E+03    0.24707E-02   -0.65525E-03   363   0.849E-02    0.635E-02
RMM:   8    -0.311942812676E+03   -0.20559E-03   -0.13173E-03   375   0.459E-02    0.199E-02
RMM:   9    -0.311942852998E+03   -0.40322E-04   -0.12460E-04   330   0.182E-02    0.873E-03
RMM:  10    -0.311942855063E+03   -0.20650E-05   -0.18735E-05   247   0.729E-03
   30 T=  5856. E= -.33393333E+03 F= -.31194286E+03 E0= -.31186355E+03  EK= 0.46928E+02 SP= -.70E+02 SK= 0.12E+01
Information: wavefunction orthogonal band  170  0.8088
Information: wavefunction orthogonal band  171  0.7916
Information: wavefunction orthogonal band  172  0.7584
Information: wavefunction orthogonal band  178  0.8651
Information: wavefunction orthogonal band  180  0.8933
 bond charge predicted
 prediction of wavefunctions
       N       E                     dE             d eps       ncg     rms          rms(c)
RMM:   1    -0.311362446216E+03    0.58041E+00   -0.29345E+02   362   0.356E+01    0.332E+00
RMM:   2    -0.309815368979E+03    0.15471E+01   -0.71571E+00   361   0.380E+00    0.334E+00
RMM:   3    -0.309436847994E+03    0.37852E+00   -0.95309E-01   388   0.119E+00    0.189E+00
RMM:   4    -0.309346717241E+03    0.90131E-01   -0.28520E-01   370   0.613E-01    0.873E-01
RMM:   5    -0.309357630940E+03   -0.10914E-01   -0.10049E-01   370   0.392E-01    0.471E-01
RMM:   6    -0.309357852468E+03   -0.22153E-03   -0.19720E-02   373   0.189E-01    0.220E-01
RMM:   7    -0.309355305648E+03    0.25468E-02   -0.37888E-03   366   0.807E-02    0.939E-02
RMM:   8    -0.309355279727E+03    0.25921E-04   -0.19076E-03   370   0.499E-02    0.347E-02
RMM:   9    -0.309355340669E+03   -0.60942E-04   -0.13319E-04   343   0.194E-02    0.217E-02
RMM:  10    -0.309355353536E+03   -0.12867E-04   -0.42675E-05   297   0.993E-03    0.108E-02
RMM:  11    -0.309355360022E+03   -0.64862E-05   -0.11674E-05   238   0.589E-03
   31 T=  5688. E= -.33381709E+03 F= -.30935536E+03 E0= -.30921287E+03  EK= 0.45585E+02 SP= -.70E+02 SK= 0.20E+00
Information: wavefunction orthogonal band  176  0.8785
 bond charge predicted
 prediction of wavefunctions
       N       E                     dE             d eps       ncg     rms          rms(c)
RMM:   1    -0.310493233803E+03   -0.11379E+01   -0.18932E+02   362   0.292E+01    0.482E+00
RMM:   2    -0.310023896694E+03    0.46934E+00   -0.80443E+00   361   0.354E+00    0.298E+00
RMM:   3    -0.309445222186E+03    0.57867E+00   -0.79493E-01   377   0.115E+00    0.120E+00
RMM:   4    -0.309410623585E+03    0.34599E-01   -0.23910E-01   372   0.510E-01    0.555E-01
RMM:   5    -0.309415122799E+03   -0.44992E-02   -0.35914E-02   374   0.276E-01    0.174E-01
RMM:   6    -0.309415048655E+03    0.74144E-04   -0.49116E-03   373   0.103E-01    0.688E-02
RMM:   7    -0.309414862627E+03    0.18603E-03   -0.13071E-03   369   0.476E-02    0.331E-02
RMM:   8    -0.309414787495E+03    0.75132E-04   -0.19025E-04   346   0.181E-02    0.166E-02
RMM:   9    -0.309414757915E+03    0.29580E-04   -0.81817E-05   307   0.103E-02    0.826E-03
RMM:  10    -0.309414747064E+03    0.10851E-04   -0.30451E-05   247   0.719E-03    0.573E-03
RMM:  11    -0.309414742338E+03    0.47263E-05   -0.64375E-06   232   0.358E-03
   32 T=  5180. E= -.33394210E+03 F= -.30941474E+03 E0= -.30927815E+03  EK= 0.41514E+02 SP= -.70E+02 SK= 0.35E+01
 bond charge predicted
 prediction of wavefunctions
       N       E                     dE             d eps       ncg     rms          rms(c)
RMM:   1    -0.310589502516E+03   -0.11748E+01   -0.16026E+02   361   0.260E+01    0.209E+00
RMM:   2    -0.309846668340E+03    0.74283E+00   -0.31876E+00   360   0.257E+00    0.138E+00
RMM:   3    -0.309752113994E+03    0.94554E-01   -0.40740E-01   389   0.855E-01    0.699E-01
RMM:   4    -0.309746424362E+03    0.56896E-02   -0.87341E-02   372   0.352E-01    0.356E-01
RMM:   5    -0.309751257301E+03   -0.48329E-02   -0.23480E-02   371   0.211E-01    0.138E-01
RMM:   6    -0.309751579605E+03   -0.32230E-03   -0.28424E-03   365   0.789E-02    0.509E-02
RMM:   7    -0.309751785414E+03   -0.20581E-03   -0.55778E-04   363   0.380E-02    0.176E-02
RMM:   8    -0.309751795107E+03   -0.96932E-05   -0.75051E-05   272   0.122E-02
   33 T=  4298. E= -.33396128E+03 F= -.30975180E+03 E0= -.30961530E+03  EK= 0.34442E+02 SP= -.68E+02 SK= 0.93E+01
 bond charge predicted
 prediction of wavefunctions
       N       E                     dE             d eps       ncg     rms          rms(c)
RMM:   1    -0.311448478692E+03   -0.16967E+01   -0.22605E+02   360   0.308E+01    0.173E+00
RMM:   2    -0.309232005700E+03    0.22165E+01   -0.38578E+00   360   0.276E+00    0.138E+00
RMM:   3    -0.309191023771E+03    0.40982E-01   -0.47407E-01   401   0.897E-01    0.961E-01
RMM:   4    -0.309183248779E+03    0.77750E-02   -0.16568E-01   375   0.465E-01    0.443E-01
RMM:   5    -0.309187454844E+03   -0.42061E-02   -0.21300E-02   377   0.219E-01    0.180E-01
RMM:   6    -0.309187288936E+03    0.16591E-03   -0.37349E-03   374   0.887E-02    0.503E-02
RMM:   7    -0.309187313569E+03   -0.24633E-04   -0.30162E-04   365   0.306E-02    0.169E-02
RMM:   8    -0.309187316057E+03   -0.24877E-05   -0.46081E-05   283   0.105E-02
   34 T=  3226. E= -.33370329E+03 F= -.30918732E+03 E0= -.30906915E+03  EK= 0.25855E+02 SP= -.66E+02 SK= 0.15E+02
Information: wavefunction orthogonal band  175  0.8521
Information: wavefunction orthogonal band  180  0.8275
 bond charge predicted
 prediction of wavefunctions
       N       E                     dE             d eps       ncg     rms          rms(c)
RMM:   1    -0.310432485215E+03   -0.12452E+01   -0.17071E+02   362   0.275E+01    0.202E+00
RMM:   2    -0.308770734620E+03    0.16618E+01   -0.41081E+00   370   0.263E+00    0.110E+00
RMM:   3    -0.308807217799E+03   -0.36483E-01   -0.45397E-01   402   0.906E-01    0.618E-01
RMM:   4    -0.308815342831E+03   -0.81250E-02   -0.55093E-02   374   0.283E-01    0.400E-01
RMM:   5    -0.308819097121E+03   -0.37543E-02   -0.21137E-02   368   0.215E-01    0.139E-01
RMM:   6    -0.308818326282E+03    0.77084E-03   -0.18585E-03   370   0.631E-02    0.494E-02
RMM:   7    -0.308818319188E+03    0.70935E-05   -0.50379E-04   372   0.298E-02    0.154E-02
RMM:   8    -0.308818321216E+03   -0.20278E-05   -0.41409E-05   263   0.967E-03
   35 T=  2274. E= -.33371293E+03 F= -.30881832E+03 E0= -.30867877E+03  EK= 0.18227E+02 SP= -.63E+02 SK= 0.20E+02
Information: wavefunction orthogonal band  169  0.8916
 bond charge predicted
 prediction of wavefunctions
       N       E                     dE             d eps       ncg     rms          rms(c)
RMM:   1    -0.308539389944E+03    0.27893E+00   -0.83373E+01   362   0.195E+01    0.199E+00
RMM:   2    -0.308176548366E+03    0.36284E+00   -0.20235E+00   365   0.190E+00    0.161E+00
RMM:   3    -0.308087701776E+03    0.88847E-01   -0.23546E-01   384   0.624E-01    0.857E-01
RMM:   4    -0.308080222147E+03    0.74796E-02   -0.76299E-02   372   0.358E-01    0.352E-01
RMM:   5    -0.308079775908E+03    0.44624E-03   -0.11461E-02   375   0.168E-01    0.117E-01
RMM:   6    -0.308079971836E+03   -0.19593E-03   -0.14416E-03   376   0.619E-02    0.478E-02
RMM:   7    -0.308080029405E+03   -0.57569E-04   -0.23290E-04   363   0.271E-02    0.156E-02
RMM:   8    -0.308080035483E+03   -0.60777E-05   -0.26118E-05   256   0.899E-03
   36 T=  1468. E= -.33406603E+03 F= -.30808004E+03 E0= -.30794798E+03  EK= 0.11768E+02 SP= -.60E+02 SK= 0.22E+02
 bond charge predicted
 prediction of wavefunctions
       N       E                     dE             d eps       ncg     rms          rms(c)
RMM:   1    -0.305508360984E+03    0.25717E+01   -0.32583E+01   361   0.121E+01    0.292E+00
RMM:   2    -0.305259094351E+03    0.24927E+00   -0.16669E+00   361   0.157E+00    0.128E+00
RMM:   3    -0.305165905009E+03    0.93189E-01   -0.16648E-01   376   0.500E-01    0.767E-01
RMM:   4    -0.305166394207E+03   -0.48920E-03   -0.45953E-02   376   0.256E-01    0.387E-01
RMM:   5    -0.305167081244E+03   -0.68704E-03   -0.11997E-02   365   0.165E-01    0.863E-02
RMM:   6    -0.305166967000E+03    0.11424E-03   -0.13756E-03   369   0.522E-02    0.317E-02
RMM:   7    -0.305167073958E+03   -0.10696E-03   -0.23618E-04   366   0.248E-02    0.166E-02
RMM:   8    -0.305167063088E+03    0.10870E-04   -0.49076E-05   279   0.102E-02    0.477E-03
RMM:   9    -0.305167061007E+03    0.20806E-05   -0.10160E-05   238   0.486E-03
   37 T=   718. E= -.33401065E+03 F= -.30516706E+03 E0= -.30509756E+03  EK= 0.57574E+01 SP= -.57E+02 SK= 0.23E+02
 bond charge predicted
 prediction of wavefunctions
       N       E                     dE             d eps       ncg     rms          rms(c)
RMM:   1    -0.304118201526E+03    0.10489E+01   -0.26445E+01   362   0.958E+00    0.202E+00
RMM:   2    -0.304058475705E+03    0.59726E-01   -0.82567E-01   362   0.117E+00    0.117E+00
RMM:   3    -0.304007270330E+03    0.51205E-01   -0.10299E-01   384   0.405E-01    0.751E-01
RMM:   4    -0.304001028645E+03    0.62417E-02   -0.68619E-02   375   0.321E-01    0.239E-01
RMM:   5    -0.303997142534E+03    0.38861E-02   -0.64808E-03   372   0.101E-01    0.768E-02
RMM:   6    -0.303997234684E+03   -0.92150E-04   -0.12844E-03   366   0.453E-02    0.410E-02
RMM:   7    -0.303997088926E+03    0.14576E-03   -0.32104E-04   350   0.195E-02    0.110E-02
RMM:   8    -0.303997088892E+03    0.34910E-07   -0.39158E-05   266   0.853E-03
   38 T=   403. E= -.33377517E+03 F= -.30399709E+03 E0= -.30393513E+03  EK= 0.32260E+01 SP= -.54E+02 SK= 0.21E+02
 bond charge predicted
 prediction of wavefunctions
       N       E                     dE             d eps       ncg     rms          rms(c)
RMM:   1    -0.307813200018E+03   -0.38161E+01   -0.47202E+00   361   0.386E+00    0.730E-01
RMM:   2    -0.307824228339E+03   -0.11028E-01   -0.16606E-01   369   0.480E-01    0.485E-01
RMM:   3    -0.307822768099E+03    0.14602E-02   -0.26436E-02   375   0.216E-01    0.148E-01
RMM:   4    -0.307821516769E+03    0.12513E-02   -0.31369E-03   373   0.657E-02    0.694E-02
RMM:   5    -0.307821205363E+03    0.31141E-03   -0.10304E-03   370   0.349E-02    0.327E-02
RMM:   6    -0.307821200161E+03    0.52019E-05   -0.17050E-04   351   0.173E-02    0.123E-02
RMM:   7    -0.307821193816E+03    0.63454E-05   -0.16530E-05   240   0.670E-03
   39 T=   646. E= -.33408678E+03 F= -.30782119E+03 E0= -.30774484E+03  EK= 0.51800E+01 SP= -.51E+02 SK= 0.20E+02
Information: wavefunction orthogonal band  178  0.8843
Information: wavefunction orthogonal band  179  0.8913
 bond charge predicted
 prediction of wavefunctions
       N       E                     dE             d eps       ncg     rms          rms(c)
RMM:   1    -0.312004173597E+03   -0.41830E+01   -0.21935E+00   360   0.263E+00    0.746E-01
RMM:   2    -0.311992319952E+03    0.11854E-01   -0.90036E-02   361   0.378E-01    0.365E-01
RMM:   3    -0.311991256459E+03    0.10635E-02   -0.89522E-03   384   0.131E-01    0.200E-01
RMM:   4    -0.311991151326E+03    0.10513E-03   -0.27407E-03   370   0.638E-02    0.904E-02
RMM:   5    -0.311991121259E+03    0.30067E-04   -0.37523E-04   366   0.280E-02    0.307E-02
RMM:   6    -0.311991131429E+03   -0.10170E-04   -0.11960E-04   339   0.150E-02    0.950E-03
RMM:   7    -0.311991137769E+03   -0.63406E-05   -0.11569E-05   237   0.616E-03
   40 T=   874. E= -.33424092E+03 F= -.31199114E+03 E0= -.31185284E+03  EK= 0.70071E+01 SP= -.49E+02 SK= 0.19E+02
 bond charge predicted
 prediction of wavefunctions
       N       E                     dE             d eps       ncg     rms          rms(c)
RMM:   1    -0.313872857679E+03   -0.18817E+01   -0.34527E+00   361   0.346E+00    0.787E-01
RMM:   2    -0.313859636572E+03    0.13221E-01   -0.11096E-01   363   0.422E-01    0.384E-01
RMM:   3    -0.313857887537E+03    0.17490E-02   -0.17572E-02   387   0.155E-01    0.276E-01
RMM:   4    -0.313856999239E+03    0.88830E-03   -0.24169E-03   371   0.669E-02    0.110E-01
RMM:   5    -0.313857035393E+03   -0.36154E-04   -0.54521E-04   368   0.359E-02    0.240E-02
RMM:   6    -0.313857044467E+03   -0.90740E-05   -0.57868E-05   294   0.121E-02
   41 T=   817. E= -.33422070E+03 F= -.31385704E+03 E0= -.31372011E+03  EK= 0.65482E+01 SP= -.46E+02 SK= 0.19E+02
 bond charge predicted
 prediction of wavefunctions
       N       E                     dE             d eps       ncg     rms          rms(c)
RMM:   1    -0.314169171047E+03   -0.31214E+00   -0.16452E+00   362   0.264E+00    0.671E-01
RMM:   2    -0.314149619479E+03    0.19552E-01   -0.12364E-01   364   0.385E-01    0.320E-01
RMM:   3    -0.314146030968E+03    0.35885E-02   -0.88480E-03   385   0.131E-01    0.207E-01
RMM:   4    -0.314145591460E+03    0.43951E-03   -0.26271E-03   373   0.664E-02    0.889E-02
RMM:   5    -0.314145615912E+03   -0.24452E-04   -0.56250E-04   373   0.354E-02    0.228E-02
RMM:   6    -0.314145622116E+03   -0.62036E-05   -0.62694E-05   307   0.119E-02
   42 T=   618. E= -.33417496E+03 F= -.31414562E+03 E0= -.31402599E+03  EK= 0.49564E+01 SP= -.43E+02 SK= 0.18E+02
 bond charge predicted
 prediction of wavefunctions
       N       E                     dE             d eps       ncg     rms          rms(c)
RMM:   1    -0.313999458365E+03    0.14616E+00   -0.16192E+00   362   0.270E+00    0.725E-01
RMM:   2    -0.313974934239E+03    0.24524E-01   -0.10425E-01   364   0.357E-01    0.337E-01
RMM:   3    -0.313973342260E+03    0.15920E-02   -0.12892E-02   392   0.145E-01    0.190E-01
RMM:   4    -0.313972912546E+03    0.42971E-03   -0.20610E-03   372   0.653E-02    0.819E-02
RMM:   5    -0.313972947059E+03   -0.34513E-04   -0.50776E-04   380   0.347E-02    0.282E-02
RMM:   6    -0.313972955695E+03   -0.86355E-05   -0.59622E-05   315   0.115E-02
   43 T=   429. E= -.33417359E+03 F= -.31397296E+03 E0= -.31385852E+03  EK= 0.34350E+01 SP= -.41E+02 SK= 0.17E+02
 bond charge predicted
 prediction of wavefunctions
       N       E                     dE             d eps       ncg     rms          rms(c)
RMM:   1    -0.313896945951E+03    0.76001E-01   -0.84085E-01   362   0.191E+00    0.292E-01
RMM:   2    -0.313894842181E+03    0.21038E-02   -0.36561E-02   361   0.216E-01    0.149E-01
RMM:   3    -0.313894117833E+03    0.72435E-03   -0.26126E-03   397   0.705E-02    0.865E-02
RMM:   4    -0.313894125010E+03   -0.71777E-05   -0.48540E-04   382   0.304E-02    0.317E-02
RMM:   5    -0.313894132270E+03   -0.72595E-05   -0.79264E-05   336   0.134E-02
   44 T=   304. E= -.33418943E+03 F= -.31389413E+03 E0= -.31375290E+03  EK= 0.24401E+01 SP= -.38E+02 SK= 0.15E+02
 bond charge predicted
 prediction of wavefunctions
       N       E                     dE             d eps       ncg     rms          rms(c)
RMM:   1    -0.314041265588E+03   -0.14714E+00   -0.32321E-01   361   0.112E+00    0.196E-01
RMM:   2    -0.314040291388E+03    0.97420E-03   -0.19629E-02   361   0.156E-01    0.104E-01
RMM:   3    -0.314039877768E+03    0.41362E-03   -0.15027E-03   404   0.536E-02    0.571E-02
RMM:   4    -0.314039862859E+03    0.14909E-04   -0.22921E-04   374   0.205E-02    0.286E-02
RMM:   5    -0.314039862485E+03    0.37371E-06   -0.49060E-05   288   0.101E-02
   45 T=   241. E= -.33420771E+03 F= -.31403986E+03 E0= -.31385755E+03  EK= 0.19337E+01 SP= -.36E+02 SK= 0.14E+02
 bond charge predicted
 prediction of wavefunctions
       N       E                     dE             d eps       ncg     rms          rms(c)
RMM:   1    -0.314344436679E+03   -0.30457E+00   -0.13344E-01   366   0.657E-01    0.130E-01
RMM:   2    -0.314344271236E+03    0.16544E-03   -0.54298E-03   369   0.984E-02    0.671E-02
RMM:   3    -0.314344153071E+03    0.11816E-03   -0.55327E-04   390   0.334E-02    0.388E-02
RMM:   4    -0.314344149271E+03    0.38001E-05   -0.14728E-04   362   0.154E-02    0.199E-02
RMM:   5    -0.314344143174E+03    0.60977E-05   -0.14980E-05   230   0.628E-03
   46 T=   215. E= -.33422524E+03 F= -.31434414E+03 E0= -.31413245E+03  EK= 0.17222E+01 SP= -.33E+02 SK= 0.12E+02
 bond charge predicted
 prediction of wavefunctions
       N       E                     dE             d eps       ncg     rms          rms(c)
RMM:   1    -0.314703610327E+03   -0.35946E+00   -0.79629E-02   365   0.451E-01    0.113E-01
RMM:   2    -0.314703083987E+03    0.52634E-03   -0.28054E-03   376   0.801E-02    0.496E-02
RMM:   3    -0.314703041945E+03    0.42042E-04   -0.44187E-04   384   0.293E-02    0.233E-02
RMM:   4    -0.314703046075E+03   -0.41295E-05   -0.51100E-05   299   0.102E-02
   47 T=   205. E= -.33423907E+03 F= -.31470305E+03 E0= -.31447758E+03  EK= 0.16393E+01 SP= -.31E+02 SK= 0.10E+02
 bond charge predicted
 prediction of wavefunctions
       N       E                     dE             d eps       ncg     rms          rms(c)
RMM:   1    -0.315060780791E+03   -0.35774E+00   -0.62579E-02   364   0.367E-01    0.754E-02
RMM:   2    -0.315060696155E+03    0.84636E-04   -0.23685E-03   383   0.715E-02    0.377E-02
RMM:   3    -0.315060693497E+03    0.26581E-05   -0.26468E-04   381   0.244E-02    0.257E-02
RMM:   4    -0.315060681922E+03    0.11575E-04   -0.34367E-05   276   0.866E-03    0.135E-02
RMM:   5    -0.315060682231E+03   -0.30964E-06   -0.10833E-05   223   0.596E-03
   48 T=   200. E= -.33424792E+03 F= -.31506068E+03 E0= -.31483142E+03  EK= 0.16048E+01 SP= -.29E+02 SK= 0.86E+01
 bond charge predicted
 prediction of wavefunctions
       N       E                     dE             d eps       ncg     rms          rms(c)
RMM:   1    -0.315399508482E+03   -0.33883E+00   -0.52917E-02   363   0.305E-01    0.543E-02
RMM:   2    -0.315399571615E+03   -0.63133E-04   -0.24434E-03   388   0.661E-02    0.274E-02
RMM:   3    -0.315399576530E+03   -0.49147E-05   -0.19771E-04   390   0.206E-02    0.211E-02
RMM:   4    -0.315399568496E+03    0.80337E-05   -0.25721E-05   250   0.776E-03
   49 T=   198. E= -.33425274E+03 F= -.31539957E+03 E0= -.31517396E+03  EK= 0.15906E+01 SP= -.28E+02 SK= 0.72E+01
 bond charge predicted
 prediction of wavefunctions
       N       E                     dE             d eps       ncg     rms          rms(c)
RMM:   1    -0.315721126439E+03   -0.32155E+00   -0.48991E-02   361   0.273E-01    0.623E-02
RMM:   2    -0.315721283244E+03   -0.15681E-03   -0.28747E-03   395   0.649E-02    0.348E-02
RMM:   3    -0.315721262536E+03    0.20708E-04   -0.17964E-04   378   0.197E-02    0.229E-02
RMM:   4    -0.315721263201E+03   -0.66552E-06   -0.50835E-05   310   0.103E-02
   50 T=   199. E= -.33425498E+03 F= -.31572126E+03 E0= -.31550758E+03  EK= 0.15927E+01 SP= -.26E+02 SK= 0.59E+01
Information: wavefunction orthogonal band  180  0.8957
 bond charge predicted
 prediction of wavefunctions
       N       E                     dE             d eps       ncg     rms          rms(c)
RMM:   1    -0.316033443731E+03   -0.31218E+00   -0.46368E-02   362   0.278E-01    0.723E-02
RMM:   2    -0.316033479462E+03   -0.35732E-04   -0.29449E-03   388   0.656E-02    0.386E-02
RMM:   3    -0.316033442643E+03    0.36819E-04   -0.24698E-04   386   0.219E-02    0.245E-02
RMM:   4    -0.316033437528E+03    0.51149E-05   -0.39508E-05   287   0.889E-03
   51 T=   202. E= -.33425508E+03 F= -.31603344E+03 E0= -.31584013E+03  EK= 0.16150E+01 SP= -.25E+02 SK= 0.47E+01
 bond charge predicted
 prediction of wavefunctions
       N       E                     dE             d eps       ncg     rms          rms(c)
RMM:   1    -0.316343922645E+03   -0.31048E+00   -0.62346E-02   361   0.296E-01    0.804E-02
RMM:   2    -0.316343961178E+03   -0.38533E-04   -0.35730E-03   383   0.714E-02    0.453E-02
RMM:   3    -0.316343950454E+03    0.10724E-04   -0.34789E-04   384   0.251E-02    0.258E-02
RMM:   4    -0.316343947051E+03    0.34028E-05   -0.45614E-05   297   0.966E-03
   52 T=   207. E= -.33425269E+03 F= -.31634395E+03 E0= -.31617294E+03  EK= 0.16629E+01 SP= -.23E+02 SK= 0.37E+01
 bond charge predicted
 prediction of wavefunctions
       N       E                     dE             d eps       ncg     rms          rms(c)
RMM:   1    -0.316663680587E+03   -0.31973E+00   -0.60851E-02   360   0.281E-01    0.546E-02
RMM:   2    -0.316663919728E+03   -0.23914E-03   -0.34665E-03   386   0.682E-02    0.356E-02
RMM:   3    -0.316663897876E+03    0.21852E-04   -0.22170E-04   377   0.211E-02    0.225E-02
RMM:   4    -0.316663891354E+03    0.65223E-05   -0.34829E-05   269   0.829E-03
   53 T=   217. E= -.33425002E+03 F= -.31666389E+03 E0= -.31651170E+03  EK= 0.17427E+01 SP= -.22E+02 SK= 0.28E+01
 bond charge predicted
 prediction of wavefunctions
       N       E                     dE             d eps       ncg     rms          rms(c)
RMM:   1    -0.317004840638E+03   -0.34094E+00   -0.76716E-02   362   0.273E-01    0.677E-02
RMM:   2    -0.317005049084E+03   -0.20845E-03   -0.44379E-03   383   0.754E-02    0.374E-02
RMM:   3    -0.317005048163E+03    0.92080E-06   -0.31310E-04   386   0.238E-02    0.259E-02
RMM:   4    -0.317005042268E+03    0.58950E-05   -0.39387E-05   283   0.929E-03
   54 T=   232. E= -.33424949E+03 F= -.31700504E+03 E0= -.31687184E+03  EK= 0.18620E+01 SP= -.21E+02 SK= 0.20E+01
 bond charge predicted
 prediction of wavefunctions
       N       E                     dE             d eps       ncg     rms          rms(c)
RMM:   1    -0.317352423302E+03   -0.34738E+00   -0.85447E-02   362   0.265E-01    0.401E-02
RMM:   2    -0.317352848005E+03   -0.42470E-03   -0.48282E-03   399   0.747E-02    0.223E-02
RMM:   3    -0.317352862792E+03   -0.14787E-04   -0.24357E-04   371   0.206E-02    0.137E-02
RMM:   4    -0.317352866209E+03   -0.34174E-05   -0.31876E-05   262   0.848E-03
   55 T=   251. E= -.33424651E+03 F= -.31735287E+03 E0= -.31723904E+03  EK= 0.20109E+01 SP= -.20E+02 SK= 0.14E+01
 bond charge predicted
 prediction of wavefunctions
       N       E                     dE             d eps       ncg     rms          rms(c)
RMM:   1    -0.317673747593E+03   -0.32088E+00   -0.78220E-02   361   0.276E-01    0.358E-02
RMM:   2    -0.317674131556E+03   -0.38396E-03   -0.43217E-03   397   0.714E-02    0.196E-02
RMM:   3    -0.317674143258E+03   -0.11702E-04   -0.18925E-04   362   0.192E-02    0.123E-02
RMM:   4    -0.317674144851E+03   -0.15930E-05   -0.19838E-05   241   0.718E-03
   56 T=   269. E= -.33424639E+03 F= -.31767414E+03 E0= -.31757695E+03  EK= 0.21543E+01 SP= -.20E+02 SK= 0.92E+00
 bond charge predicted
 prediction of wavefunctions
       N       E                     dE             d eps       ncg     rms          rms(c)
RMM:   1    -0.317922486595E+03   -0.24834E+00   -0.81663E-02   360   0.297E-01    0.342E-02
RMM:   2    -0.317922913046E+03   -0.42645E-03   -0.46078E-03   390   0.731E-02    0.203E-02
RMM:   3    -0.317922931707E+03   -0.18662E-04   -0.24096E-04   372   0.201E-02    0.118E-02
RMM:   4    -0.317922934453E+03   -0.27456E-05   -0.18536E-05   236   0.701E-03
   57 T=   281. E= -.33424688E+03 F= -.31792293E+03 E0= -.31783691E+03  EK= 0.22543E+01 SP= -.19E+02 SK= 0.53E+00
 bond charge predicted
 prediction of wavefunctions
       N       E                     dE             d eps       ncg     rms          rms(c)
RMM:   1    -0.318063149231E+03   -0.14022E+00   -0.89835E-02   360   0.307E-01    0.313E-02
RMM:   2    -0.318063634742E+03   -0.48551E-03   -0.50243E-03   391   0.747E-02    0.203E-02
RMM:   3    -0.318063649772E+03   -0.15030E-04   -0.22897E-04   375   0.205E-02    0.106E-02
RMM:   4    -0.318063651925E+03   -0.21535E-05   -0.16246E-05   237   0.686E-03
   58 T=   285. E= -.33424649E+03 F= -.31806365E+03 E0= -.31798310E+03  EK= 0.22835E+01 SP= -.19E+02 SK= 0.26E+00
 bond charge predicted
 prediction of wavefunctions
       N       E                     dE             d eps       ncg     rms          rms(c)
RMM:   1    -0.318080535120E+03   -0.16885E-01   -0.78903E-02   362   0.284E-01    0.301E-02
RMM:   2    -0.318080974625E+03   -0.43950E-03   -0.46312E-03   390   0.711E-02    0.185E-02
RMM:   3    -0.318080987057E+03   -0.12432E-04   -0.20847E-04   353   0.197E-02    0.120E-02
RMM:   4    -0.318080987699E+03   -0.64225E-06   -0.26298E-05   248   0.788E-03
   59 T=   278. E= -.33424449E+03 F= -.31808099E+03 E0= -.31800262E+03  EK= 0.22315E+01 SP= -.18E+02 SK= 0.78E-01
 bond charge predicted
 prediction of wavefunctions
       N       E                     dE             d eps       ncg     rms          rms(c)
RMM:   1    -0.317983748082E+03    0.97239E-01   -0.85833E-02   361   0.273E-01    0.285E-02
RMM:   2    -0.317984307165E+03   -0.55908E-03   -0.57521E-03   397   0.743E-02    0.173E-02
RMM:   3    -0.317984324840E+03   -0.17674E-04   -0.22547E-04   334   0.185E-02    0.115E-02
RMM:   4    -0.317984325674E+03   -0.83467E-06   -0.23495E-05   244   0.774E-03
   60 T=   263. E= -.33424305E+03 F= -.31798433E+03 E0= -.31790678E+03  EK= 0.21068E+01 SP= -.18E+02 SK= 0.26E-02
 bond charge predicted
 prediction of wavefunctions
       N       E                     dE             d eps       ncg     rms          rms(c)
RMM:   1    -0.317789609204E+03    0.19472E+00   -0.76771E-02   361   0.277E-01    0.265E-02
RMM:   2    -0.317790119056E+03   -0.50985E-03   -0.52429E-03   402   0.718E-02    0.157E-02
RMM:   3    -0.317790138820E+03   -0.19764E-04   -0.21979E-04   331   0.179E-02    0.966E-03
RMM:   4    -0.317790140893E+03   -0.20731E-05   -0.15624E-05   238   0.664E-03
   61 T=   240. E= -.33424020E+03 F= -.31779014E+03 E0= -.31771288E+03  EK= 0.19251E+01 SP= -.18E+02 SK= 0.34E-01
 bond charge predicted
 prediction of wavefunctions
       N       E                     dE             d eps       ncg     rms          rms(c)
RMM:   1    -0.317536641764E+03    0.25350E+00   -0.88947E-02   360   0.296E-01    0.278E-02
RMM:   2    -0.317537348184E+03   -0.70642E-03   -0.72700E-03   387   0.736E-02    0.167E-02
RMM:   3    -0.317537371665E+03   -0.23481E-04   -0.28354E-04   341   0.193E-02    0.109E-02
RMM:   4    -0.317537372805E+03   -0.11392E-05   -0.19389E-05   241   0.698E-03
   62 T=   214. E= -.33423890E+03 F= -.31753737E+03 E0= -.31746010E+03  EK= 0.17172E+01 SP= -.19E+02 SK= 0.18E+00
Information: wavefunction orthogonal band  180  0.8689
 bond charge predicted
 prediction of wavefunctions
       N       E                     dE             d eps       ncg     rms          rms(c)
RMM:   1    -0.317269849242E+03    0.26752E+00   -0.70996E-02   363   0.295E-01    0.273E-02
RMM:   2    -0.317270294864E+03   -0.44562E-03   -0.46559E-03   399   0.671E-02    0.165E-02
RMM:   3    -0.317270306295E+03   -0.11431E-04   -0.15524E-04   342   0.171E-02    0.972E-03
RMM:   4    -0.317270307002E+03   -0.70714E-06   -0.11489E-05   231   0.609E-03
   63 T=   190. E= -.33423845E+03 F= -.31727031E+03 E0= -.31719250E+03  EK= 0.15217E+01 SP= -.19E+02 SK= 0.46E+00
 bond charge predicted
 prediction of wavefunctions
       N       E                     dE             d eps       ncg     rms          rms(c)
RMM:   1    -0.317028890815E+03    0.24142E+00   -0.62906E-02   360   0.284E-01    0.342E-02
RMM:   2    -0.317029352450E+03   -0.46163E-03   -0.50067E-03   389   0.664E-02    0.175E-02
RMM:   3    -0.317029364292E+03   -0.11842E-04   -0.18616E-04   353   0.179E-02    0.108E-02
RMM:   4    -0.317029365510E+03   -0.12184E-05   -0.18447E-05   235   0.703E-03
   64 T=   171. E= -.33424020E+03 F= -.31702937E+03 E0= -.31695056E+03  EK= 0.13728E+01 SP= -.19E+02 SK= 0.87E+00
 bond charge predicted
 prediction of wavefunctions
       N       E                     dE             d eps       ncg     rms          rms(c)
RMM:   1    -0.316848249652E+03    0.18111E+00   -0.49637E-02   362   0.259E-01    0.432E-02
RMM:   2    -0.316848575357E+03   -0.32571E-03   -0.40112E-03   380   0.592E-02    0.207E-02
RMM:   3    -0.316848583527E+03   -0.81694E-05   -0.16868E-04   361   0.172E-02    0.130E-02
RMM:   4    -0.316848584111E+03   -0.58413E-06   -0.17852E-05   235   0.693E-03
   65 T=   163. E= -.33424328E+03 F= -.31684858E+03 E0= -.31676918E+03  EK= 0.13042E+01 SP= -.20E+02 SK= 0.14E+01
 bond charge predicted
 prediction of wavefunctions
       N       E                     dE             d eps       ncg     rms          rms(c)
RMM:   1    -0.316750133474E+03    0.98450E-01   -0.47408E-02   361   0.250E-01    0.324E-02
RMM:   2    -0.316750492100E+03   -0.35863E-03   -0.39418E-03   382   0.581E-02    0.180E-02
RMM:   3    -0.316750506343E+03   -0.14243E-04   -0.20490E-04   356   0.167E-02    0.102E-02
RMM:   4    -0.316750506153E+03    0.18999E-06   -0.13333E-05   232   0.627E-03
   66 T=   168. E= -.33424709E+03 F= -.31675051E+03 E0= -.31667129E+03  EK= 0.13443E+01 SP= -.21E+02 SK= 0.21E+01
 bond charge predicted
 prediction of wavefunctions
       N       E                     dE             d eps       ncg     rms          rms(c)
RMM:   1    -0.316742005799E+03    0.85005E-02   -0.66637E-02   362   0.273E-01    0.327E-02
RMM:   2    -0.316742361617E+03   -0.35582E-03   -0.41592E-03   382   0.653E-02    0.169E-02
RMM:   3    -0.316742370683E+03   -0.90659E-05   -0.18856E-04   372   0.182E-02    0.106E-02
RMM:   4    -0.316742369852E+03    0.83096E-06   -0.19120E-05   237   0.690E-03
   67 T=   189. E= -.33424949E+03 F= -.31674237E+03 E0= -.31666389E+03  EK= 0.15158E+01 SP= -.22E+02 SK= 0.29E+01
 bond charge predicted
 prediction of wavefunctions
       N       E                     dE             d eps       ncg     rms          rms(c)
RMM:   1    -0.316821348651E+03   -0.78978E-01   -0.62258E-02   362   0.292E-01    0.433E-02
RMM:   2    -0.316821785896E+03   -0.43724E-03   -0.56823E-03   381   0.688E-02    0.202E-02
RMM:   3    -0.316821780979E+03    0.49173E-05   -0.23550E-04   374   0.199E-02    0.123E-02
RMM:   4    -0.316821777883E+03    0.30964E-05   -0.27781E-05   256   0.784E-03
   68 T=   229. E= -.33425363E+03 F= -.31682178E+03 E0= -.31674404E+03  EK= 0.18363E+01 SP= -.23E+02 SK= 0.39E+01
 bond charge predicted
 prediction of wavefunctions
       N       E                     dE             d eps       ncg     rms          rms(c)
RMM:   1    -0.316952494186E+03   -0.13071E+00   -0.54381E-02   362   0.292E-01    0.435E-02
RMM:   2    -0.316952846724E+03   -0.35254E-03   -0.49371E-03   374   0.647E-02    0.198E-02
RMM:   3    -0.316952844057E+03    0.26669E-05   -0.23137E-04   383   0.201E-02    0.118E-02
RMM:   4    -0.316952843482E+03    0.57488E-06   -0.22266E-05   242   0.720E-03
   69 T=   288. E= -.33425660E+03 F= -.31695284E+03 E0= -.31687552E+03  EK= 0.23041E+01 SP= -.24E+02 SK= 0.48E+01
 bond charge predicted
 prediction of wavefunctions
       N       E                     dE             d eps       ncg     rms          rms(c)
RMM:   1    -0.317075054127E+03   -0.12221E+00   -0.94929E-02   363   0.328E-01    0.326E-02
RMM:   2    -0.317075500775E+03   -0.44665E-03   -0.53265E-03   378   0.756E-02    0.161E-02
RMM:   3    -0.317075515823E+03   -0.15048E-04   -0.25510E-04   379   0.220E-02    0.102E-02
RMM:   4    -0.317075517821E+03   -0.19976E-05   -0.20257E-05   243   0.735E-03
   70 T=   361. E= -.33425915E+03 F= -.31707552E+03 E0= -.31699834E+03  EK= 0.28938E+01 SP= -.26E+02 SK= 0.58E+01
 bond charge predicted
 prediction of wavefunctions
       N       E                     dE             d eps       ncg     rms          rms(c)
RMM:   1    -0.317086949428E+03   -0.11434E-01   -0.11206E-01   361   0.378E-01    0.309E-02
RMM:   2    -0.317087535165E+03   -0.58574E-03   -0.63984E-03   383   0.863E-02    0.171E-02
RMM:   3    -0.317087563915E+03   -0.28750E-04   -0.30872E-04   389   0.245E-02    0.111E-02
RMM:   4    -0.317087569053E+03   -0.51373E-05   -0.24509E-05   249   0.793E-03
   71 T=   442. E= -.33425526E+03 F= -.31708757E+03 E0= -.31701042E+03  EK= 0.35401E+01 SP= -.27E+02 SK= 0.68E+01
 bond charge predicted
 prediction of wavefunctions
       N       E                     dE             d eps       ncg     rms          rms(c)
RMM:   1    -0.316887778286E+03    0.19979E+00   -0.12720E-01   361   0.436E-01    0.437E-02
RMM:   2    -0.316888609889E+03   -0.83160E-03   -0.93164E-03   378   0.997E-02    0.215E-02
RMM:   3    -0.316888661058E+03   -0.51169E-04   -0.57666E-04   408   0.305E-02    0.139E-02
RMM:   4    -0.316888663374E+03   -0.23160E-05   -0.35329E-05   270   0.883E-03
   72 T=   518. E= -.33425004E+03 F= -.31688866E+03 E0= -.31681152E+03  EK= 0.41530E+01 SP= -.29E+02 SK= 0.77E+01
 bond charge predicted
 prediction of wavefunctions
       N       E                     dE             d eps       ncg     rms          rms(c)
RMM:   1    -0.316396024173E+03    0.49264E+00   -0.13698E-01   362   0.489E-01    0.532E-02
RMM:   2    -0.316396894243E+03   -0.87007E-03   -0.10013E-02   379   0.104E-01    0.270E-02
RMM:   3    -0.316396939018E+03   -0.44774E-04   -0.56293E-04   409   0.317E-02    0.169E-02
RMM:   4    -0.316396942877E+03   -0.38594E-05   -0.41419E-05   284   0.945E-03
   73 T=   580. E= -.33423951E+03 F= -.31639694E+03 E0= -.31631977E+03  EK= 0.46484E+01 SP= -.31E+02 SK= 0.85E+01
 bond charge predicted
 prediction of wavefunctions
       N       E                     dE             d eps       ncg     rms          rms(c)
RMM:   1    -0.315590756742E+03    0.80618E+00   -0.17429E-01   361   0.549E-01    0.534E-02
RMM:   2    -0.315591770555E+03   -0.10138E-02   -0.10893E-02   381   0.116E-01    0.303E-02
RMM:   3    -0.315591829896E+03   -0.59341E-04   -0.68448E-04   414   0.345E-02    0.187E-02
RMM:   4    -0.315591835004E+03   -0.51082E-05   -0.44099E-05   276   0.101E-02
   74 T=   621. E= -.33422982E+03 F= -.31559184E+03 E0= -.31551453E+03  EK= 0.49728E+01 SP= -.33E+02 SK= 0.93E+01
 bond charge predicted
 prediction of wavefunctions
       N       E                     dE             d eps       ncg     rms          rms(c)
RMM:   1    -0.314493700718E+03    0.10981E+01   -0.19871E-01   361   0.585E-01    0.501E-02
RMM:   2    -0.314494959257E+03   -0.12585E-02   -0.12525E-02   387   0.126E-01    0.318E-02
RMM:   3    -0.314495036712E+03   -0.77455E-04   -0.82697E-04   420   0.384E-02    0.181E-02
RMM:   4    -0.314495044367E+03   -0.76545E-05   -0.42013E-05   273   0.102E-02
   75 T=   638. E= -.33421786E+03 F= -.31449504E+03 E0= -.31441712E+03  EK= 0.51119E+01 SP= -.35E+02 SK= 0.10E+02
 bond charge predicted
 prediction of wavefunctions
       N       E                     dE             d eps       ncg     rms          rms(c)
RMM:   1    -0.313167633241E+03    0.13274E+01   -0.21345E-01   361   0.620E-01    0.512E-02
RMM:   2    -0.313169060462E+03   -0.14272E-02   -0.13928E-02   392   0.132E-01    0.348E-02
RMM:   3    -0.313169127352E+03   -0.66890E-04   -0.79767E-04   419   0.381E-02    0.241E-02
RMM:   4    -0.313169136137E+03   -0.87852E-05   -0.85373E-05   340   0.127E-02
   76 T=   634. E= -.33420677E+03 F= -.31316914E+03 E0= -.31308900E+03  EK= 0.50823E+01 SP= -.37E+02 SK= 0.11E+02
 bond charge predicted
 prediction of wavefunctions
       N       E                     dE             d eps       ncg     rms          rms(c)
RMM:   1    -0.311698026160E+03    0.14711E+01   -0.20736E-01   361   0.660E-01    0.618E-02
RMM:   2    -0.311699214064E+03   -0.11879E-02   -0.11624E-02   393   0.129E-01    0.403E-02
RMM:   3    -0.311699274082E+03   -0.60019E-04   -0.66127E-04   414   0.380E-02    0.221E-02
RMM:   4    -0.311699285232E+03   -0.11149E-04   -0.48541E-05   283   0.114E-02    0.711E-03
RMM:   5    -0.311699285728E+03   -0.49657E-06   -0.72243E-06   230   0.550E-03
   77 T=   616. E= -.33419525E+03 F= -.31169929E+03 E0= -.31161446E+03  EK= 0.49337E+01 SP= -.39E+02 SK= 0.11E+02
 bond charge predicted
 prediction of wavefunctions
       N       E                     dE             d eps       ncg     rms          rms(c)
RMM:   1    -0.310204992303E+03    0.14943E+01   -0.26482E-01   361   0.749E-01    0.799E-02
RMM:   2    -0.310206116624E+03   -0.11243E-02   -0.13266E-02   386   0.148E-01    0.460E-02
RMM:   3    -0.310206190418E+03   -0.73794E-04   -0.10316E-03   407   0.472E-02    0.208E-02
RMM:   4    -0.310206198454E+03   -0.80359E-05   -0.59500E-05   294   0.121E-02
   78 T=   595. E= -.33418312E+03 F= -.31020620E+03 E0= -.31011623E+03  EK= 0.47678E+01 SP= -.41E+02 SK= 0.12E+02
 bond charge predicted
 prediction of wavefunctions
       N       E                     dE             d eps       ncg     rms          rms(c)
RMM:   1    -0.308848144591E+03    0.13580E+01   -0.29735E-01   361   0.841E-01    0.113E-01
RMM:   2    -0.308849233370E+03   -0.10888E-02   -0.15127E-02   386   0.156E-01    0.645E-02
RMM:   3    -0.308849287639E+03   -0.54269E-04   -0.11152E-03   395   0.502E-02    0.307E-02
RMM:   4    -0.308849302225E+03   -0.14587E-04   -0.10455E-04   365   0.150E-02    0.116E-02
RMM:   5    -0.308849303706E+03   -0.14807E-05   -0.10128E-05   230   0.604E-03
   79 T=   595. E= -.33416598E+03 F= -.30884930E+03 E0= -.30875449E+03  EK= 0.47655E+01 SP= -.43E+02 SK= 0.13E+02
Information: wavefunction orthogonal band  180  0.8919
 bond charge predicted
 prediction of wavefunctions
       N       E                     dE             d eps       ncg     rms          rms(c)
RMM:   1    -0.307810891602E+03    0.10384E+01   -0.31926E-01   360   0.873E-01    0.101E-01
RMM:   2    -0.307812314014E+03   -0.14224E-02   -0.16973E-02   393   0.163E-01    0.619E-02
RMM:   3    -0.307812380420E+03   -0.66406E-04   -0.11841E-03   396   0.504E-02    0.326E-02
RMM:   4    -0.307812395496E+03   -0.15076E-04   -0.95632E-05   354   0.150E-02    0.120E-02
RMM:   5    -0.307812396877E+03   -0.13809E-05   -0.10380E-05   230   0.639E-03
   80 T=   645. E= -.33416236E+03 F= -.30781240E+03 E0= -.30770527E+03  EK= 0.51698E+01 SP= -.46E+02 SK= 0.14E+02
 bond charge predicted
 prediction of wavefunctions
       N       E                     dE             d eps       ncg     rms          rms(c)
RMM:   1    -0.307121032063E+03    0.69136E+00   -0.30356E-01   361   0.813E-01    0.116E-01
RMM:   2    -0.307122493501E+03   -0.14614E-02   -0.19629E-02   391   0.161E-01    0.706E-02
RMM:   3    -0.307122556817E+03   -0.63316E-04   -0.11657E-03   401   0.491E-02    0.399E-02
RMM:   4    -0.307122579662E+03   -0.22844E-04   -0.11895E-04   354   0.168E-02    0.124E-02
RMM:   5    -0.307122582619E+03   -0.29568E-05   -0.13338E-05   235   0.691E-03
   81 T=   769. E= -.33416170E+03 F= -.30712258E+03 E0= -.30699176E+03  EK= 0.61625E+01 SP= -.48E+02 SK= 0.15E+02
 bond charge predicted
 prediction of wavefunctions
       N       E                     dE             d eps       ncg     rms          rms(c)
RMM:   1    -0.306626470044E+03    0.49611E+00   -0.42712E-01   361   0.920E-01    0.143E-01
RMM:   2    -0.306628347231E+03   -0.18772E-02   -0.27337E-02   387   0.189E-01    0.806E-02
RMM:   3    -0.306628453084E+03   -0.10585E-03   -0.20255E-03   404   0.613E-02    0.421E-02
RMM:   4    -0.306628481007E+03   -0.27922E-04   -0.13605E-04   368   0.179E-02    0.178E-02
RMM:   5    -0.306628487919E+03   -0.69122E-05   -0.20705E-05   237   0.841E-03
   82 T=   970. E= -.33415979E+03 F= -.30662849E+03 E0= -.30648966E+03  EK= 0.77748E+01 SP= -.51E+02 SK= 0.15E+02
 bond charge predicted
 prediction of wavefunctions
       N       E                     dE             d eps       ncg     rms          rms(c)
RMM:   1    -0.306144886356E+03    0.48359E+00   -0.76692E-01   362   0.126E+00    0.240E-01
RMM:   2    -0.306146470994E+03   -0.15846E-02   -0.49249E-02   383   0.258E-01    0.113E-01
RMM:   3    -0.306146582618E+03   -0.11162E-03   -0.36209E-03   409   0.823E-02    0.636E-02
RMM:   4    -0.306146618158E+03   -0.35540E-04   -0.31774E-04   374   0.267E-02    0.244E-02
RMM:   5    -0.306146628715E+03   -0.10556E-04   -0.40646E-05   287   0.112E-02    0.808E-03
RMM:   6    -0.306146631519E+03   -0.28043E-05   -0.84362E-06   229   0.567E-03
   83 T=  1247. E= -.33415357E+03 F= -.30614663E+03 E0= -.30603416E+03  EK= 0.99897E+01 SP= -.53E+02 SK= 0.15E+02
 bond charge predicted
 prediction of wavefunctions
       N       E                     dE             d eps       ncg     rms          rms(c)
RMM:   1    -0.305592402045E+03    0.55423E+00   -0.14211E+00   363   0.182E+00    0.354E-01
RMM:   2    -0.305593004534E+03   -0.60249E-03   -0.84928E-02   374   0.346E-01    0.194E-01
RMM:   3    -0.305593002067E+03    0.24671E-05   -0.75027E-03   419   0.121E-01    0.112E-01
RMM:   4    -0.305592942121E+03    0.59946E-04   -0.86900E-04   364   0.429E-02    0.332E-02
RMM:   5    -0.305592957853E+03   -0.15732E-04   -0.12063E-04   368   0.177E-02    0.113E-02
RMM:   6    -0.305592961360E+03   -0.35069E-05   -0.15601E-05   230   0.721E-03
   84 T=  1600. E= -.33415394E+03 F= -.30559296E+03 E0= -.30552784E+03  EK= 0.12826E+02 SP= -.55E+02 SK= 0.14E+02
Information: wavefunction orthogonal band  172  0.8998
 bond charge predicted
 prediction of wavefunctions
       N       E                     dE             d eps       ncg     rms          rms(c)
RMM:   1    -0.304831619886E+03    0.76134E+00   -0.28556E+00   362   0.279E+00    0.325E-01
RMM:   2    -0.304840295281E+03   -0.86754E-02   -0.15411E-01   374   0.468E-01    0.187E-01
RMM:   3    -0.304840810671E+03   -0.51539E-03   -0.98165E-03   434   0.150E-01    0.121E-01
RMM:   4    -0.304840933478E+03   -0.12281E-03   -0.13294E-03   365   0.528E-02    0.285E-02
RMM:   5    -0.304840940912E+03   -0.74342E-05   -0.10113E-04   360   0.168E-02    0.153E-02
RMM:   6    -0.304840942467E+03   -0.15557E-05   -0.45922E-05   301   0.995E-03
   85 T=  2015. E= -.33417621E+03 F= -.30484094E+03 E0= -.30479924E+03  EK= 0.16150E+02 SP= -.58E+02 SK= 0.12E+02
Information: wavefunction orthogonal band  171  0.8466
Information: wavefunction orthogonal band  177  0.8829
 bond charge predicted
 prediction of wavefunctions
       N       E                     dE             d eps       ncg     rms          rms(c)
RMM:   1    -0.303349557276E+03    0.14914E+01   -0.56196E+00   365   0.432E+00    0.543E-01
RMM:   2    -0.303359483020E+03   -0.99257E-02   -0.25081E-01   366   0.599E-01    0.304E-01
RMM:   3    -0.303360150435E+03   -0.66741E-03   -0.19635E-02   403   0.208E-01    0.161E-01
RMM:   4    -0.303360231204E+03   -0.80768E-04   -0.17624E-03   374   0.646E-02    0.671E-02
RMM:   5    -0.303360290406E+03   -0.59202E-04   -0.33245E-04   374   0.313E-02    0.215E-02
RMM:   6    -0.303360293438E+03   -0.30321E-05   -0.63741E-05   327   0.123E-02
   86 T=  2389. E= -.33427180E+03 F= -.30336029E+03 E0= -.30331764E+03  EK= 0.19145E+02 SP= -.60E+02 SK= 0.96E+01
Information: wavefunction orthogonal band  177  0.8632
 bond charge predicted
 prediction of wavefunctions
       N       E                     dE             d eps       ncg     rms          rms(c)
RMM:   1    -0.299822582695E+03    0.35377E+01   -0.97959E+00   363   0.595E+00    0.666E-01
RMM:   2    -0.299837277777E+03   -0.14695E-01   -0.36299E-01   366   0.734E-01    0.400E-01
RMM:   3    -0.299838931069E+03   -0.16533E-02   -0.28537E-02   409   0.251E-01    0.270E-01
RMM:   4    -0.299839117221E+03   -0.18615E-03   -0.24572E-03   367   0.766E-02    0.117E-01
RMM:   5    -0.299839300751E+03   -0.18353E-03   -0.65439E-04   370   0.453E-02    0.241E-02
RMM:   6    -0.299839286594E+03    0.14157E-04   -0.87099E-05   347   0.131E-02    0.106E-02
RMM:   7    -0.299839289929E+03   -0.33351E-05   -0.23685E-05   257   0.737E-03
   87 T=  2500. E= -.33429870E+03 F= -.29983929E+03 E0= -.29975495E+03  EK= 0.20039E+02 SP= -.61E+02 SK= 0.70E+01
Information: wavefunction orthogonal band  179  0.8995
 bond charge predicted
 prediction of wavefunctions
       N       E                     dE             d eps       ncg     rms          rms(c)
RMM:   1    -0.294037445946E+03    0.58018E+01   -0.15619E+01   367   0.728E+00    0.102E+00
RMM:   2    -0.294062256405E+03   -0.24810E-01   -0.67625E-01   369   0.103E+00    0.650E-01
RMM:   3    -0.294042806124E+03    0.19450E-01   -0.69052E-02   396   0.359E-01    0.385E-01
RMM:   4    -0.294043781169E+03   -0.97504E-03   -0.90771E-03   369   0.129E-01    0.154E-01
RMM:   5    -0.294043915605E+03   -0.13444E-03   -0.11502E-03   380   0.577E-02    0.499E-02
RMM:   6    -0.294043891718E+03    0.23887E-04   -0.22115E-04   355   0.210E-02    0.173E-02
RMM:   7    -0.294043900695E+03   -0.89767E-05   -0.36517E-05   277   0.990E-03
   88 T=  2276. E= -.33395407E+03 F= -.29404390E+03 E0= -.29391798E+03  EK= 0.18243E+02 SP= -.63E+02 SK= 0.48E+01
Information: wavefunction orthogonal band  178  0.8240
 bond charge predicted
 prediction of wavefunctions
       N       E                     dE             d eps       ncg     rms          rms(c)
RMM:   1    -0.291354363233E+03    0.26895E+01   -0.31686E+01   367   0.983E+00    0.263E+00
RMM:   2    -0.291266069481E+03    0.88294E-01   -0.21477E+00   362   0.170E+00    0.172E+00
RMM:   3    -0.291097510168E+03    0.16856E+00   -0.21928E-01   383   0.570E-01    0.751E-01
RMM:   4    -0.291090390403E+03    0.71198E-02   -0.40815E-02   378   0.219E-01    0.437E-01
RMM:   5    -0.291089439270E+03    0.95113E-03   -0.10949E-02   371   0.148E-01    0.110E-01
RMM:   6    -0.291088988819E+03    0.45045E-03   -0.12788E-03   362   0.473E-02    0.418E-02
RMM:   7    -0.291088968918E+03    0.19901E-04   -0.27166E-04   364   0.233E-02    0.120E-02
RMM:   8    -0.291088966811E+03    0.21068E-05   -0.20785E-05   248   0.709E-03
   89 T=  2323. E= -.33350517E+03 F= -.29108897E+03 E0= -.29095097E+03  EK= 0.18621E+02 SP= -.64E+02 SK= 0.32E+01
Information: wavefunction orthogonal band  180  0.8591
 bond charge predicted
 prediction of wavefunctions
       N       E                     dE             d eps       ncg     rms          rms(c)
RMM:   1    -0.296592010613E+03   -0.55030E+01   -0.12481E+01   366   0.655E+00    0.110E+00
RMM:   2    -0.296625619103E+03   -0.33608E-01   -0.56712E-01   371   0.958E-01    0.856E-01
RMM:   3    -0.296609712924E+03    0.15906E-01   -0.54278E-02   390   0.341E-01    0.526E-01
RMM:   4    -0.296607702309E+03    0.20106E-02   -0.15663E-02   373   0.154E-01    0.199E-01
RMM:   5    -0.296607620211E+03    0.82098E-04   -0.28093E-03   375   0.762E-02    0.596E-02
RMM:   6    -0.296607522104E+03    0.98107E-04   -0.38743E-04   358   0.264E-02    0.331E-02
RMM:   7    -0.296607531543E+03   -0.94396E-05   -0.14317E-04   360   0.159E-02    0.132E-02
RMM:   8    -0.296607530247E+03    0.12961E-05   -0.12020E-05   240   0.557E-03
   90 T=  3270. E= -.33410746E+03 F= -.29660753E+03 E0= -.29646857E+03  EK= 0.26204E+02 SP= -.65E+02 SK= 0.15E+01
 bond charge predicted
 prediction of wavefunctions
       N       E                     dE             d eps       ncg     rms          rms(c)
RMM:   1    -0.304099561073E+03   -0.74920E+01   -0.10601E+01   365   0.639E+00    0.115E+00
RMM:   2    -0.304089238814E+03    0.10322E-01   -0.34210E-01   367   0.814E-01    0.717E-01
RMM:   3    -0.304086689214E+03    0.25496E-02   -0.40962E-02   391   0.298E-01    0.420E-01
RMM:   4    -0.304086228087E+03    0.46113E-03   -0.80561E-03   374   0.122E-01    0.135E-01
RMM:   5    -0.304086168315E+03    0.59773E-04   -0.10753E-03   380   0.512E-02    0.411E-02
RMM:   6    -0.304086180985E+03   -0.12671E-04   -0.17473E-04   358   0.190E-02    0.155E-02
RMM:   7    -0.304086180385E+03    0.59960E-06   -0.21487E-05   247   0.819E-03
   91 T=  4376. E= -.33464048E+03 F= -.30408618E+03 E0= -.30396119E+03  EK= 0.35068E+02 SP= -.66E+02 SK= 0.11E+00
Information: wavefunction orthogonal band  177  0.8975
Information: wavefunction orthogonal band  179  0.8981
 bond charge predicted
 prediction of wavefunctions
       N       E                     dE             d eps       ncg     rms          rms(c)
RMM:   1    -0.307045972086E+03   -0.29598E+01   -0.21207E+01   363   0.911E+00    0.158E+00
RMM:   2    -0.306976582289E+03    0.69390E-01   -0.78957E-01   360   0.114E+00    0.950E-01
RMM:   3    -0.306955920864E+03    0.20661E-01   -0.74514E-02   385   0.407E-01    0.574E-01
RMM:   4    -0.306954668422E+03    0.12524E-02   -0.24174E-02   373   0.194E-01    0.185E-01
RMM:   5    -0.306954621418E+03    0.47004E-04   -0.25232E-03   395   0.715E-02    0.960E-02
RMM:   6    -0.306954586086E+03    0.35331E-04   -0.77370E-04   365   0.363E-02    0.326E-02
RMM:   7    -0.306954589270E+03   -0.31840E-05   -0.58739E-05   295   0.131E-02
   92 T=  4663. E= -.33457271E+03 F= -.30695459E+03 E0= -.30682705E+03  EK= 0.37368E+02 SP= -.66E+02 SK= 0.62E+00
 bond charge predicted
 prediction of wavefunctions
       N       E                     dE             d eps       ncg     rms          rms(c)
RMM:   1    -0.306316443620E+03    0.63814E+00   -0.17810E+01   362   0.893E+00    0.197E+00
RMM:   2    -0.306122652103E+03    0.19379E+00   -0.10527E+00   361   0.125E+00    0.778E-01
RMM:   3    -0.306105624439E+03    0.17028E-01   -0.95706E-02   391   0.451E-01    0.481E-01
RMM:   4    -0.306104953422E+03    0.67102E-03   -0.15544E-02   370   0.173E-01    0.208E-01
RMM:   5    -0.306105697374E+03   -0.74395E-03   -0.32560E-03   380   0.897E-02    0.739E-02
RMM:   6    -0.306105799426E+03   -0.10205E-03   -0.39718E-04   369   0.326E-02    0.343E-02
RMM:   7    -0.306105804354E+03   -0.49275E-05   -0.12568E-04   355   0.176E-02    0.139E-02
RMM:   8    -0.306105786828E+03    0.17526E-04   -0.33935E-05   262   0.887E-03    0.626E-03
RMM:   9    -0.306105766870E+03    0.19958E-04   -0.21770E-05   245   0.632E-03    0.337E-03
RMM:  10    -0.306105755008E+03    0.11862E-04   -0.16172E-05   238   0.433E-03    0.154E-03
RMM:  11    -0.306105753247E+03    0.17607E-05   -0.38523E-06   170   0.224E-03
   93 T=  4129. E= -.33429544E+03 F= -.30610575E+03 E0= -.30598755E+03  EK= 0.33094E+02 SP= -.65E+02 SK= 0.35E+01
Information: wavefunction orthogonal band  178  0.8738
Information: wavefunction orthogonal band  179  0.8745
Information: wavefunction orthogonal band  180  0.8883
 bond charge predicted
 prediction of wavefunctions
       N       E                     dE             d eps       ncg     rms          rms(c)
RMM:   1    -0.303993862854E+03    0.21119E+01   -0.16367E+01   368   0.892E+00    0.218E+00
RMM:   2    -0.303757718516E+03    0.23614E+00   -0.10446E+00   361   0.122E+00    0.942E-01
RMM:   3    -0.303738400992E+03    0.19318E-01   -0.11987E-01   389   0.475E-01    0.547E-01
RMM:   4    -0.303734466030E+03    0.39350E-02   -0.24259E-02   370   0.213E-01    0.202E-01
RMM:   5    -0.303734401337E+03    0.64693E-04   -0.43671E-03   386   0.101E-01    0.722E-02
RMM:   6    -0.303734214095E+03    0.18724E-03   -0.78458E-04   371   0.418E-02    0.328E-02
RMM:   7    -0.303733948304E+03    0.26579E-03   -0.44560E-04   362   0.256E-02    0.132E-02
RMM:   8    -0.303733810506E+03    0.13780E-03   -0.24919E-04   287   0.141E-02    0.550E-03
RMM:   9    -0.303733784425E+03    0.26081E-04   -0.74022E-05   252   0.754E-03    0.297E-03
RMM:  10    -0.303733781790E+03    0.26354E-05   -0.16632E-05   230   0.355E-03
   94 T=  3178. E= -.33428005E+03 F= -.30373378E+03 E0= -.30371386E+03  EK= 0.25467E+02 SP= -.63E+02 SK= 0.73E+01
 bond charge predicted
 prediction of wavefunctions
       N       E                     dE             d eps       ncg     rms          rms(c)
RMM:   1    -0.300438331096E+03    0.32955E+01   -0.10485E+01   364   0.707E+00    0.129E+00
RMM:   2    -0.300409103500E+03    0.29228E-01   -0.41060E-01   361   0.902E-01    0.654E-01
RMM:   3    -0.300408395389E+03    0.70811E-03   -0.50834E-02   391   0.341E-01    0.340E-01
RMM:   4    -0.300409227297E+03   -0.83191E-03   -0.73658E-03   371   0.133E-01    0.107E-01
RMM:   5    -0.300409571815E+03   -0.34452E-03   -0.12521E-03   386   0.592E-02    0.360E-02
RMM:   6    -0.300409603700E+03   -0.31886E-04   -0.15927E-04   366   0.199E-02    0.174E-02
RMM:   7    -0.300409623404E+03   -0.19704E-04   -0.76738E-05   339   0.129E-02    0.515E-03
RMM:   8    -0.300409623268E+03    0.13565E-06   -0.76324E-06   234   0.435E-03
   95 T=  2167. E= -.33409843E+03 F= -.30040962E+03 E0= -.30039681E+03  EK= 0.17369E+02 SP= -.61E+02 SK= 0.10E+02
Information: wavefunction orthogonal band  168  0.6808
 bond charge predicted
 prediction of wavefunctions
       N       E                     dE             d eps       ncg     rms          rms(c)
RMM:   1    -0.298673556680E+03    0.17361E+01   -0.77447E+00   361   0.573E+00    0.942E-01
RMM:   2    -0.298662266529E+03    0.11290E-01   -0.31268E-01   370   0.787E-01    0.531E-01
RMM:   3    -0.298657877424E+03    0.43891E-02   -0.48435E-02   380   0.319E-01    0.193E-01
RMM:   4    -0.298657877417E+03    0.62100E-08   -0.43089E-03   380   0.998E-02    0.846E-02
RMM:   5    -0.298657934872E+03   -0.57454E-04   -0.83626E-04   383   0.471E-02    0.310E-02
RMM:   6    -0.298657914480E+03    0.20392E-04   -0.14799E-04   357   0.182E-02    0.129E-02
RMM:   7    -0.298657870871E+03    0.43609E-04   -0.60882E-05   284   0.117E-02    0.559E-03
RMM:   8    -0.298657835682E+03    0.35189E-04   -0.34151E-05   252   0.728E-03    0.301E-03
RMM:   9    -0.298657823186E+03    0.12495E-04   -0.19925E-05   242   0.462E-03    0.139E-03
RMM:  10    -0.298657821858E+03    0.13287E-05   -0.42462E-06   176   0.244E-03
[...]
RMM:   4    -0.314805200653E+03   -0.65351E-05   -0.33035E-04   361   0.261E-02    0.213E-02
RMM:   5    -0.314805205633E+03   -0.49799E-05   -0.30770E-05   261   0.104E-02
 1057 T=   984. E= -.33452470E+03 F= -.31480521E+03 E0= -.31475963E+03  EK= 0.78854E+01 SP= -.28E+02 SK= 0.17E-01
 bond charge predicted
 prediction of wavefunctions
       N       E                     dE             d eps       ncg     rms          rms(c)
RMM:   1    -0.314516144897E+03    0.28906E+00   -0.71763E-01   360   0.133E+00    0.178E-01
RMM:   2    -0.314519032116E+03   -0.28872E-02   -0.36988E-02   362   0.248E-01    0.106E-01
RMM:   3    -0.314519219424E+03   -0.18731E-03   -0.36564E-03   419   0.852E-02    0.639E-02
RMM:   4    -0.314519228835E+03   -0.94106E-05   -0.33155E-04   361   0.262E-02    0.193E-02
RMM:   5    -0.314519233056E+03   -0.42207E-05   -0.26917E-05   252   0.985E-03
 1058 T=   939. E= -.33452257E+03 F= -.31451923E+03 E0= -.31445930E+03  EK= 0.75236E+01 SP= -.28E+02 SK= 0.14E-01
 bond charge predicted
 prediction of wavefunctions
       N       E                     dE             d eps       ncg     rms          rms(c)
RMM:   1    -0.314256815266E+03    0.26241E+00   -0.71455E-01   360   0.131E+00    0.191E-01
RMM:   2    -0.314259139933E+03   -0.23247E-02   -0.35867E-02   360   0.249E-01    0.107E-01
RMM:   3    -0.314259300794E+03   -0.16086E-03   -0.37729E-03   422   0.865E-02    0.630E-02
RMM:   4    -0.314259298649E+03    0.21457E-05   -0.34230E-04   362   0.258E-02    0.213E-02
RMM:   5    -0.314259305643E+03   -0.69943E-05   -0.33037E-05   261   0.103E-02
 1059 T=   899. E= -.33451869E+03 F= -.31425931E+03 E0= -.31419649E+03  EK= 0.72042E+01 SP= -.27E+02 SK= 0.87E-02
 bond charge predicted
 prediction of wavefunctions
       N       E                     dE             d eps       ncg     rms          rms(c)
RMM:   1    -0.314104742297E+03    0.15456E+00   -0.79223E-01   361   0.138E+00    0.228E-01
RMM:   2    -0.314106665714E+03   -0.19234E-02   -0.38162E-02   363   0.258E-01    0.127E-01
RMM:   3    -0.314106661824E+03    0.38906E-05   -0.39990E-03   414   0.901E-02    0.688E-02
RMM:   4    -0.314106645720E+03    0.16104E-04   -0.47263E-04   360   0.297E-02    0.210E-02
RMM:   5    -0.314106650321E+03   -0.46008E-05   -0.36614E-05   271   0.110E-02
 1060 T=   876. E= -.33450694E+03 F= -.31410665E+03 E0= -.31405057E+03  EK= 0.70198E+01 SP= -.27E+02 SK= 0.34E-02
 bond charge predicted
 prediction of wavefunctions
       N       E                     dE             d eps       ncg     rms          rms(c)
RMM:   1    -0.314235293629E+03   -0.12865E+00   -0.78260E-01   362   0.139E+00    0.207E-01
RMM:   2    -0.314237374541E+03   -0.20809E-02   -0.34694E-02   367   0.254E-01    0.124E-01
RMM:   3    -0.314237344309E+03    0.30233E-04   -0.38216E-03   402   0.901E-02    0.539E-02
RMM:   4    -0.314237354776E+03   -0.10467E-04   -0.34187E-04   372   0.259E-02    0.199E-02
RMM:   5    -0.314237355523E+03   -0.74721E-06   -0.33683E-05   263   0.103E-02
 1061 T=   889. E= -.33450776E+03 F= -.31423736E+03 E0= -.31418778E+03  EK= 0.71283E+01 SP= -.27E+02 SK= 0.45E-03
 bond charge predicted
 prediction of wavefunctions
       N       E                     dE             d eps       ncg     rms          rms(c)
RMM:   1    -0.314653531700E+03   -0.41618E+00   -0.69055E-01   360   0.130E+00    0.176E-01
RMM:   2    -0.314656020589E+03   -0.24889E-02   -0.32706E-02   365   0.243E-01    0.108E-01
RMM:   3    -0.314656166938E+03   -0.14635E-03   -0.35534E-03   405   0.863E-02    0.531E-02
RMM:   4    -0.314656189401E+03   -0.22463E-04   -0.30495E-04   365   0.252E-02    0.177E-02
RMM:   5    -0.314656190961E+03   -0.15604E-05   -0.29728E-05   255   0.993E-03
 1062 T=   939. E= -.33452556E+03 F= -.31465619E+03 E0= -.31461190E+03  EK= 0.75274E+01 SP= -.27E+02 SK= 0.32E-04
 bond charge predicted
 prediction of wavefunctions
       N       E                     dE             d eps       ncg     rms          rms(c)
RMM:   1    -0.315137032562E+03   -0.48084E+00   -0.72288E-01   361   0.136E+00    0.193E-01
RMM:   2    -0.315139123665E+03   -0.20911E-02   -0.32902E-02   364   0.243E-01    0.117E-01
RMM:   3    -0.315139203468E+03   -0.79803E-04   -0.38034E-03   407   0.880E-02    0.542E-02
RMM:   4    -0.315139222951E+03   -0.19482E-04   -0.29315E-04   364   0.246E-02    0.208E-02
RMM:   5    -0.315139226431E+03   -0.34804E-05   -0.33825E-05   263   0.105E-02
 1063 T=   999. E= -.33453936E+03 F= -.31513923E+03 E0= -.31510451E+03  EK= 0.80060E+01 SP= -.27E+02 SK= 0.24E-03
 bond charge predicted
 prediction of wavefunctions
       N       E                     dE             d eps       ncg     rms          rms(c)
RMM:   1    -0.315495464420E+03   -0.35624E+00   -0.80512E-01   361   0.145E+00    0.209E-01
RMM:   2    -0.315497539019E+03   -0.20746E-02   -0.34446E-02   366   0.251E-01    0.124E-01
RMM:   3    -0.315497555805E+03   -0.16785E-04   -0.42672E-03   395   0.936E-02    0.438E-02
RMM:   4    -0.315497588092E+03   -0.32287E-04   -0.28251E-04   394   0.242E-02    0.193E-02
RMM:   5    -0.315497592663E+03   -0.45705E-05   -0.31847E-05   258   0.102E-02
 1064 T=  1044. E= -.33454717E+03 F= -.31549759E+03 E0= -.31547588E+03  EK= 0.83665E+01 SP= -.27E+02 SK= 0.75E-04
 bond charge predicted
 prediction of wavefunctions
       N       E                     dE             d eps       ncg     rms          rms(c)
RMM:   1    -0.315623452261E+03   -0.12586E+00   -0.79370E-01   361   0.144E+00    0.196E-01
RMM:   2    -0.315626082769E+03   -0.26305E-02   -0.37158E-02   361   0.255E-01    0.115E-01
RMM:   3    -0.315626254491E+03   -0.17172E-03   -0.39635E-03   416   0.903E-02    0.574E-02
RMM:   4    -0.315626278269E+03   -0.23778E-04   -0.30259E-04   361   0.253E-02    0.188E-02
RMM:   5    -0.315626283015E+03   -0.47457E-05   -0.28855E-05   256   0.994E-03
 1065 T=  1059. E= -.33455525E+03 F= -.31562628E+03 E0= -.31561350E+03  EK= 0.84882E+01 SP= -.27E+02 SK= 0.57E-04
Information: wavefunction orthogonal band  180  0.8867
 bond charge predicted
 prediction of wavefunctions
       N       E                     dE             d eps       ncg     rms          rms(c)
RMM:   1    -0.315431603834E+03    0.19467E+00   -0.78576E-01   362   0.145E+00    0.184E-01
RMM:   2    -0.315434458102E+03   -0.28543E-02   -0.36766E-02   363   0.255E-01    0.112E-01
RMM:   3    -0.315434672042E+03   -0.21394E-03   -0.38546E-03   418   0.894E-02    0.508E-02
RMM:   4    -0.315434702741E+03   -0.30699E-04   -0.21841E-04   366   0.230E-02    0.170E-02
RMM:   5    -0.315434707322E+03   -0.45814E-05   -0.23398E-05   245   0.925E-03
 1066 T=  1034. E= -.33455173E+03 F= -.31543471E+03 E0= -.31542452E+03  EK= 0.82891E+01 SP= -.27E+02 SK= 0.49E-03
 bond charge predicted
 prediction of wavefunctions
       N       E                     dE             d eps       ncg     rms          rms(c)
RMM:   1    -0.314975798316E+03    0.45890E+00   -0.89496E-01   361   0.152E+00    0.198E-01
RMM:   2    -0.314978767180E+03   -0.29689E-02   -0.40971E-02   361   0.271E-01    0.120E-01
RMM:   3    -0.314978912608E+03   -0.14543E-03   -0.42855E-03   408   0.960E-02    0.537E-02
RMM:   4    -0.314978939055E+03   -0.26447E-04   -0.31236E-04   371   0.260E-02    0.206E-02
RMM:   5    -0.314978942644E+03   -0.35895E-05   -0.33184E-05   265   0.106E-02
 1067 T=   978. E= -.33453209E+03 F= -.31497894E+03 E0= -.31496913E+03  EK= 0.78356E+01 SP= -.27E+02 SK= 0.58E-03
 bond charge predicted
 prediction of wavefunctions
       N       E                     dE             d eps       ncg     rms          rms(c)
RMM:   1    -0.314512998859E+03    0.46594E+00   -0.92677E-01   361   0.157E+00    0.203E-01
RMM:   2    -0.314515891140E+03   -0.28923E-02   -0.41255E-02   362   0.275E-01    0.122E-01
RMM:   3    -0.314516001744E+03   -0.11060E-03   -0.43940E-03   406   0.966E-02    0.494E-02
RMM:   4    -0.314516026731E+03   -0.24987E-04   -0.27021E-04   376   0.250E-02    0.184E-02
RMM:   5    -0.314516031874E+03   -0.51426E-05   -0.33503E-05   264   0.109E-02
 1068 T=   920. E= -.33451711E+03 F= -.31451603E+03 E0= -.31450549E+03  EK= 0.73752E+01 SP= -.27E+02 SK= 0.65E-04
 bond charge predicted
 prediction of wavefunctions
       N       E                     dE             d eps       ncg     rms          rms(c)
RMM:   1    -0.314247650477E+03    0.26838E+00   -0.90382E-01   361   0.155E+00    0.199E-01
RMM:   2    -0.314250579987E+03   -0.29295E-02   -0.42086E-02   364   0.279E-01    0.117E-01
RMM:   3    -0.314250755937E+03   -0.17595E-03   -0.43530E-03   410   0.965E-02    0.543E-02
RMM:   4    -0.314250778493E+03   -0.22556E-04   -0.28763E-04   371   0.254E-02    0.196E-02
RMM:   5    -0.314250782961E+03   -0.44681E-05   -0.31567E-05   265   0.103E-02
 1069 T=   887. E= -.33451787E+03 F= -.31425078E+03 E0= -.31423759E+03  EK= 0.71115E+01 SP= -.27E+02 SK= 0.49E-03
 bond charge predicted
 prediction of wavefunctions
       N       E                     dE             d eps       ncg     rms          rms(c)
RMM:   1    -0.314177656836E+03    0.73122E-01   -0.97019E-01   361   0.158E+00    0.204E-01
RMM:   2    -0.314180769050E+03   -0.31122E-02   -0.43153E-02   361   0.286E-01    0.124E-01
RMM:   3    -0.314180923646E+03   -0.15460E-03   -0.48585E-03   405   0.103E-01    0.480E-02
RMM:   4    -0.314180953297E+03   -0.29651E-04   -0.28508E-04   390   0.254E-02    0.196E-02
RMM:   5    -0.314180959444E+03   -0.61469E-05   -0.32447E-05   264   0.106E-02
 1070 T=   881. E= -.33452146E+03 F= -.31418096E+03 E0= -.31416490E+03  EK= 0.70603E+01 SP= -.27E+02 SK= 0.34E-02
 bond charge predicted
 prediction of wavefunctions
       N       E                     dE             d eps       ncg     rms          rms(c)
RMM:   1    -0.314257073772E+03   -0.76120E-01   -0.10542E+00   361   0.164E+00    0.222E-01
RMM:   2    -0.314260136513E+03   -0.30627E-02   -0.46961E-02   362   0.296E-01    0.133E-01
RMM:   3    -0.314260220392E+03   -0.83878E-04   -0.54130E-03   404   0.107E-01    0.516E-02
RMM:   4    -0.314260242806E+03   -0.22415E-04   -0.32729E-04   386   0.268E-02    0.205E-02
RMM:   5    -0.314260248601E+03   -0.57944E-05   -0.39741E-05   277   0.113E-02
 1071 T=   896. E= -.33452214E+03 F= -.31426025E+03 E0= -.31424231E+03  EK= 0.71822E+01 SP= -.27E+02 SK= 0.88E-02
 bond charge predicted
 prediction of wavefunctions
       N       E                     dE             d eps       ncg     rms          rms(c)
RMM:   1    -0.314467258090E+03   -0.20702E+00   -0.99703E-01   361   0.157E+00    0.208E-01
RMM:   2    -0.314470398741E+03   -0.31407E-02   -0.45568E-02   363   0.289E-01    0.125E-01
RMM:   3    -0.314470534622E+03   -0.13588E-03   -0.51756E-03   407   0.103E-01    0.479E-02
RMM:   4    -0.314470557323E+03   -0.22701E-04   -0.28570E-04   389   0.253E-02    0.197E-02
RMM:   5    -0.314470563731E+03   -0.64084E-05   -0.34810E-05   267   0.107E-02
 1072 T=   929. E= -.33452910E+03 F= -.31447056E+03 E0= -.31445116E+03  EK= 0.74488E+01 SP= -.28E+02 SK= 0.15E-01
 bond charge predicted
 prediction of wavefunctions
       N       E                     dE             d eps       ncg     rms          rms(c)
RMM:   1    -0.314725406958E+03   -0.25485E+00   -0.96070E-01   361   0.152E+00    0.202E-01
RMM:   2    -0.314728605790E+03   -0.31988E-02   -0.44749E-02   362   0.281E-01    0.123E-01
RMM:   3    -0.314728680834E+03   -0.75044E-04   -0.49063E-03   401   0.100E-01    0.442E-02
RMM:   4    -0.314728708890E+03   -0.28056E-04   -0.30293E-04   401   0.252E-02    0.188E-02
RMM:   5    -0.314728712449E+03   -0.35584E-05   -0.28970E-05   253   0.997E-03
 1073 T=   971. E= -.33453321E+03 F= -.31472871E+03 E0= -.31470879E+03  EK= 0.77819E+01 SP= -.28E+02 SK= 0.19E-01
 bond charge predicted
 prediction of wavefunctions
       N       E                     dE             d eps       ncg     rms          rms(c)
RMM:   1    -0.314972479590E+03   -0.24377E+00   -0.98524E-01   360   0.157E+00    0.217E-01
RMM:   2    -0.314975478016E+03   -0.29984E-02   -0.45120E-02   363   0.280E-01    0.129E-01
RMM:   3    -0.314975534545E+03   -0.56529E-04   -0.47687E-03   405   0.989E-02    0.505E-02
RMM:   4    -0.314975559448E+03   -0.24903E-04   -0.30473E-04   384   0.256E-02    0.196E-02
RMM:   5    -0.314975563617E+03   -0.41694E-05   -0.33125E-05   262   0.105E-02
 1074 T=  1012. E= -.33453604E+03 F= -.31497556E+03 E0= -.31495635E+03  EK= 0.81140E+01 SP= -.28E+02 SK= 0.19E-01
Information: wavefunction orthogonal band  180  0.8728
 bond charge predicted
 prediction of wavefunctions
       N       E                     dE             d eps       ncg     rms          rms(c)
RMM:   1    -0.315159466028E+03   -0.18391E+00   -0.86600E-01   361   0.151E+00    0.198E-01
RMM:   2    -0.315162218677E+03   -0.27526E-02   -0.38926E-02   362   0.263E-01    0.118E-01
RMM:   3    -0.315162377867E+03   -0.15919E-03   -0.42521E-03   406   0.934E-02    0.479E-02
RMM:   4    -0.315162403303E+03   -0.25436E-04   -0.23486E-04   378   0.232E-02    0.187E-02
RMM:   5    -0.315162409430E+03   -0.61264E-05   -0.29022E-05   257   0.102E-02
 1075 T=  1046. E= -.33454436E+03 F= -.31516241E+03 E0= -.31514398E+03  EK= 0.83814E+01 SP= -.28E+02 SK= 0.17E-01
 bond charge predicted
 prediction of wavefunctions
       N       E                     dE             d eps       ncg     rms          rms(c)
RMM:   1    -0.315180852267E+03   -0.18449E-01   -0.85893E-01   361   0.149E+00    0.188E-01
RMM:   2    -0.315183701409E+03   -0.28491E-02   -0.39019E-02   364   0.262E-01    0.114E-01
RMM:   3    -0.315183875176E+03   -0.17377E-03   -0.41660E-03   408   0.920E-02    0.463E-02
RMM:   4    -0.315183900872E+03   -0.25696E-04   -0.22240E-04   382   0.225E-02    0.179E-02
RMM:   5    -0.315183906986E+03   -0.61141E-05   -0.24778E-05   246   0.965E-03
 1076 T=  1058. E= -.33454703E+03 F= -.31518391E+03 E0= -.31516506E+03  EK= 0.84816E+01 SP= -.28E+02 SK= 0.13E-01
 bond charge predicted
 prediction of wavefunctions
       N       E                     dE             d eps       ncg     rms          rms(c)
RMM:   1    -0.314996147194E+03    0.18775E+00   -0.85846E-01   360   0.150E+00    0.192E-01
RMM:   2    -0.314998958453E+03   -0.28113E-02   -0.38515E-02   364   0.263E-01    0.117E-01
RMM:   3    -0.314999073821E+03   -0.11537E-03   -0.40585E-03   407   0.919E-02    0.475E-02
RMM:   4    -0.314999100076E+03   -0.26255E-04   -0.24623E-04   380   0.233E-02    0.177E-02
RMM:   5    -0.314999104945E+03   -0.48686E-05   -0.24117E-05   247   0.943E-03
 1077 T=  1045. E= -.33453448E+03 F= -.31499910E+03 E0= -.31497847E+03  EK= 0.83785E+01 SP= -.28E+02 SK= 0.95E-02
 bond charge predicted
 prediction of wavefunctions
       N       E                     dE             d eps       ncg     rms          rms(c)
RMM:   1    -0.314744242523E+03    0.25486E+00   -0.86996E-01   360   0.151E+00    0.197E-01
RMM:   2    -0.314746918603E+03   -0.26761E-02   -0.38221E-02   362   0.265E-01    0.120E-01
RMM:   3    -0.314746999446E+03   -0.80843E-04   -0.40888E-03   404   0.929E-02    0.503E-02
RMM:   4    -0.314747023380E+03   -0.23935E-04   -0.28304E-04   375   0.245E-02    0.193E-02
RMM:   5    -0.314747026490E+03   -0.31096E-05   -0.29722E-05   259   0.993E-03
 1078 T=  1024. E= -.33451653E+03 F= -.31474703E+03 E0= -.31472421E+03  EK= 0.82032E+01 SP= -.28E+02 SK= 0.75E-02
 bond charge predicted
 prediction of wavefunctions
       N       E                     dE             d eps       ncg     rms          rms(c)
RMM:   1    -0.314635422107E+03    0.11160E+00   -0.91181E-01   360   0.151E+00    0.201E-01
RMM:   2    -0.314638313705E+03   -0.28916E-02   -0.42497E-02   363   0.273E-01    0.118E-01
RMM:   3    -0.314638465319E+03   -0.15161E-03   -0.44483E-03   410   0.954E-02    0.512E-02
RMM:   4    -0.314638488331E+03   -0.23011E-04   -0.26244E-04   373   0.242E-02    0.198E-02
RMM:   5    -0.314638493882E+03   -0.55516E-05   -0.31501E-05   259   0.103E-02
 1079 T=  1017. E= -.33451080E+03 F= -.31463849E+03 E0= -.31461477E+03  EK= 0.81536E+01 SP= -.28E+02 SK= 0.64E-02
 bond charge predicted
 prediction of wavefunctions
       N       E                     dE             d eps       ncg     rms          rms(c)
RMM:   1    -0.314712435539E+03   -0.73947E-01   -0.89624E-01   360   0.146E+00    0.200E-01
RMM:   2    -0.314715455607E+03   -0.30201E-02   -0.45308E-02   362   0.272E-01    0.113E-01
RMM:   3    -0.314715694614E+03   -0.23901E-03   -0.45198E-03   424   0.936E-02    0.597E-02
RMM:   4    -0.314715707779E+03   -0.13166E-04   -0.29191E-04   361   0.253E-02    0.193E-02
RMM:   5    -0.314715713716E+03   -0.59372E-05   -0.30691E-05   261   0.101E-02
 1080 T=  1032. E= -.33452432E+03 F= -.31471571E+03 E0= -.31469333E+03  EK= 0.82672E+01 SP= -.28E+02 SK= 0.53E-02
 bond charge predicted
 prediction of wavefunctions
       N       E                     dE             d eps       ncg     rms          rms(c)
RMM:   1    -0.314779579596E+03   -0.63872E-01   -0.86455E-01   360   0.142E+00    0.190E-01
RMM:   2    -0.314782895187E+03   -0.33156E-02   -0.44540E-02   363   0.271E-01    0.110E-01
RMM:   3    -0.314783168918E+03   -0.27373E-03   -0.44203E-03   430   0.932E-02    0.599E-02
RMM:   4    -0.314783188184E+03   -0.19266E-04   -0.28996E-04   360   0.247E-02    0.190E-02
RMM:   5    -0.314783194597E+03   -0.64127E-05   -0.28141E-05   253   0.968E-03
 1081 T=  1044. E= -.33453788E+03 F= -.31478319E+03 E0= -.31476443E+03  EK= 0.83651E+01 SP= -.28E+02 SK= 0.37E-02
 bond charge predicted
 prediction of wavefunctions
       N       E                     dE             d eps       ncg     rms          rms(c)
RMM:   1    -0.314647317691E+03    0.13587E+00   -0.89050E-01   361   0.145E+00    0.194E-01
RMM:   2    -0.314650456734E+03   -0.31390E-02   -0.43586E-02   364   0.272E-01    0.114E-01
RMM:   3    -0.314650646885E+03   -0.19015E-03   -0.42341E-03   417   0.931E-02    0.552E-02
RMM:   4    -0.314650669374E+03   -0.22489E-04   -0.28966E-04   363   0.254E-02    0.172E-02
RMM:   5    -0.314650675577E+03   -0.62025E-05   -0.29429E-05   261   0.999E-03
 1082 T=  1032. E= -.33453384E+03 F= -.31465068E+03 E0= -.31463750E+03  EK= 0.82718E+01 SP= -.28E+02 SK= 0.24E-02
 bond charge predicted
 prediction of wavefunctions
       N       E                     dE             d eps       ncg     rms          rms(c)
RMM:   1    -0.314349848086E+03    0.30082E+00   -0.94715E-01   360   0.146E+00    0.194E-01
RMM:   2    -0.314353366749E+03   -0.35187E-02   -0.47292E-02   362   0.281E-01    0.115E-01
RMM:   3    -0.314353576190E+03   -0.20944E-03   -0.45124E-03   414   0.959E-02    0.569E-02
RMM:   4    -0.314353595638E+03   -0.19448E-04   -0.32632E-04   363   0.265E-02    0.187E-02
RMM:   5    -0.314353601534E+03   -0.58963E-05   -0.31095E-05   261   0.103E-02
 1083 T=  1000. E= -.33452054E+03 F= -.31435360E+03 E0= -.31434589E+03  EK= 0.80159E+01 SP= -.28E+02 SK= 0.19E-02
Information: wavefunction orthogonal band  179  0.8950
 bond charge predicted
 prediction of wavefunctions
       N       E                     dE             d eps       ncg     rms          rms(c)
RMM:   1    -0.314046320767E+03    0.30727E+00   -0.86352E-01   361   0.143E+00    0.181E-01
RMM:   2    -0.314049816435E+03   -0.34957E-02   -0.44025E-02   367   0.271E-01    0.108E-01
RMM:   3    -0.314050052837E+03   -0.23640E-03   -0.40110E-03   422   0.896E-02    0.567E-02
RMM:   4    -0.314050073993E+03   -0.21156E-04   -0.26995E-04   363   0.243E-02    0.176E-02
RMM:   5    -0.314050077839E+03   -0.38456E-05   -0.24063E-05   251   0.926E-03
 1084 T=   966. E= -.33451812E+03 F= -.31405008E+03 E0= -.31404522E+03  EK= 0.77417E+01 SP= -.28E+02 SK= 0.24E-02
 bond charge predicted
 prediction of wavefunctions
       N       E                     dE             d eps       ncg     rms          rms(c)
RMM:   1    -0.313768209697E+03    0.28186E+00   -0.84873E-01   361   0.139E+00    0.174E-01
RMM:   2    -0.313771888282E+03   -0.36786E-02   -0.45293E-02   367   0.271E-01    0.102E-01
