 running on   35 total cores
 distrk:  each k-point on   35 cores,    1 groups
 distr:  one band on    1 cores,   35 groups
 using from now: INCAR     
 vasp.5.4.1 24Jun15 (build Oct 26 2018 17:15:27) complex                        
  
 POSCAR found type information on POSCAR  Pt
 POSCAR found :  1 types and      13 ions
 scaLAPACK will be used

 ----------------------------------------------------------------------------- 
|                                                                             |
|           W    W    AA    RRRRR   N    N  II  N    N   GGGG   !!!           |
|           W    W   A  A   R    R  NN   N  II  NN   N  G    G  !!!           |
|           W    W  A    A  R    R  N N  N  II  N N  N  G       !!!           |
|           W WW W  AAAAAA  RRRRR   N  N N  II  N  N N  G  GGG   !            |
|           WW  WW  A    A  R   R   N   NN  II  N   NN  G    G                |
|           W    W  A    A  R    R  N    N  II  N    N   GGGG   !!!           |
|                                                                             |
|      For optimal performance we recommend to set                            |
|        NCORE= 4 - approx SQRT( number of cores)                             |
|      NCORE specifies how many cores store one orbital (NPAR=cpu/NCORE).     |
|      This setting can  greatly improve the performance of VASP for DFT.     |
|      The default, NPAR=number of cores might be grossly inefficient         |
|      on modern multi-core architectures or massively parallel machines.     |
|      Do your own testing !!!!                                               |
|      Unfortunately you need to use the default for GW and RPA calculations. |
|      (for HF NCORE is supported but not extensively tested yet)             |
|                                                                             |
 ----------------------------------------------------------------------------- 

 LDA part: xc-table for Ceperly-Alder, standard interpolation
 POSCAR, INCAR and KPOINTS ok, starting setup
 WARNING: small aliasing (wrap around) errors must be expected
 FFT: planning ...
 WAVECAR not read
 entering main loop
       N       E                     dE             d eps       ncg     rms          rms(c)
DAV:   1     0.101046553508E+04    0.10105E+04   -0.24539E+04   210   0.694E+02
DAV:   2     0.288241992309E+03   -0.72222E+03   -0.65584E+03   420   0.868E+01
DAV:   3    -0.355785043320E+02   -0.32382E+03   -0.31376E+03   350   0.900E+01
DAV:   4    -0.602952232704E+02   -0.24717E+02   -0.23306E+02   280   0.451E+01
DAV:   5    -0.606731223644E+02   -0.37790E+00   -0.37595E+00   245   0.562E+00    0.118E+01
DAV:   6    -0.581122158063E+02    0.25609E+01   -0.18789E+01   350   0.161E+01    0.848E+00
DAV:   7    -0.592734250302E+02   -0.11612E+01   -0.44128E+01   350   0.252E+01    0.103E+01
DAV:   8    -0.574816429372E+02    0.17918E+01   -0.17158E+01   315   0.160E+01    0.530E+00
DAV:   9    -0.569535919615E+02    0.52805E+00   -0.21707E+00   385   0.772E+00    0.274E+00
DAV:  10    -0.569193671642E+02    0.34225E-01   -0.65850E-01   350   0.306E+00    0.227E+00
DAV:  11    -0.568658235143E+02    0.53544E-01   -0.29297E-01   315   0.228E+00    0.110E+00
DAV:  12    -0.568654088823E+02    0.41463E-03   -0.23277E-01   350   0.222E+00    0.108E+00
DAV:  13    -0.568467851284E+02    0.18624E-01   -0.21625E-01   315   0.193E+00    0.526E-01
DAV:  14    -0.568406812110E+02    0.61039E-02   -0.55889E-02   350   0.945E-01    0.254E-01
DAV:  15    -0.568384764099E+02    0.22048E-02   -0.98805E-03   350   0.419E-01    0.142E-01
DAV:  16    -0.568370602596E+02    0.14162E-02   -0.33331E-03   280   0.294E-01    0.832E-02
DAV:  17    -0.568364383190E+02    0.62194E-03   -0.13584E-03   315   0.162E-01    0.569E-02
DAV:  18    -0.568365621675E+02   -0.12385E-03   -0.62919E-04   280   0.119E-01    0.309E-02
DAV:  19    -0.568377968649E+02   -0.12347E-02   -0.47121E-04   245   0.801E-02    0.296E-02
DAV:  20    -0.568394505595E+02   -0.16537E-02   -0.48872E-04   280   0.750E-02    0.236E-02
DAV:  21    -0.568415396865E+02   -0.20891E-02   -0.75323E-04   280   0.601E-02    0.176E-02
DAV:  22    -0.568423358802E+02   -0.79619E-03   -0.26239E-04   350   0.410E-02    0.102E-02
DAV:  23    -0.568430496481E+02   -0.71377E-03   -0.15976E-04   245   0.340E-02    0.849E-03
DAV:  24    -0.568433587203E+02   -0.30907E-03   -0.64047E-05   245   0.235E-02    0.399E-03
DAV:  25    -0.568437522712E+02   -0.39355E-03   -0.35727E-05   210   0.135E-02    0.345E-03
DAV:  26    -0.568439796660E+02   -0.22739E-03   -0.17766E-05   245   0.982E-03    0.241E-03
DAV:  27    -0.568441651109E+02   -0.18544E-03   -0.19324E-05   245   0.920E-03    0.154E-03
DAV:  28    -0.568442578492E+02   -0.92738E-04   -0.99990E-06   280   0.633E-03    0.120E-03
DAV:  29    -0.568442865570E+02   -0.28708E-04   -0.18595E-06   210   0.451E-03    0.817E-04
DAV:  30    -0.568443017919E+02   -0.15235E-04   -0.28653E-06   175   0.368E-03    0.363E-04
DAV:  31    -0.568443048366E+02   -0.30447E-05   -0.25211E-07   140   0.187E-03
   1 F= -.56844305E+02 E0= -.56782226E+02  d E =-.568443E+02
 curvature:   0.00 expect dE= 0.000E+00 dE for cont linesearch  0.000E+00
 trial: gam= 0.00000 g(F)=  0.164E-03 g(S)=  0.000E+00 ort = 0.000E+00 (trialstep = 0.100E+01)
 search vector abs. value=  0.164E-03
 bond charge predicted
       N       E                     dE             d eps       ncg     rms          rms(c)
DAV:   1    -0.568444504487E+02   -0.14866E-03   -0.95204E-03   210   0.224E-01    0.142E-02
DAV:   2    -0.568444682440E+02   -0.17795E-04   -0.22030E-04   350   0.547E-02    0.189E-02
DAV:   3    -0.568444622917E+02    0.59523E-05   -0.59476E-05   175   0.386E-02
   2 F= -.56844462E+02 E0= -.56782401E+02  d E =-.157455E-03
 ZBRENT: can't locate minimum, use default step
 trial-energy change:   -0.000157  1 .order   -0.000151   -0.000164   -0.000137
 step:   4.0000(harm=  6.1943)  dis= 0.00202  next Energy=   -56.844813 (dE=-0.508E-03)
 bond charge predicted
       N       E                     dE             d eps       ncg     rms          rms(c)
DAV:   1    -0.568447289191E+02   -0.26068E-03   -0.86106E-02   210   0.673E-01    0.458E-02
DAV:   2    -0.568448904131E+02   -0.16149E-03   -0.20347E-03   280   0.176E-01    0.591E-02
DAV:   3    -0.568448311636E+02    0.59250E-04   -0.55087E-04   280   0.121E-01    0.272E-02
DAV:   4    -0.568448243958E+02    0.67678E-05   -0.10531E-04   175   0.410E-02    0.254E-02
DAV:   5    -0.568448199646E+02    0.44313E-05   -0.77816E-05   175   0.383E-02
   3 F= -.56844820E+02 E0= -.56782687E+02  d E =-.515128E-03
 curvature:  -2.54 expect dE=-0.267E-03 dE for cont linesearch -0.147E-03
 ZBRENT: increasing intervall
 opt :  10.0000  next Energy=   -56.845163 (dE=-0.858E-03)
 bond charge predicted
       N       E                     dE             d eps       ncg     rms          rms(c)
DAV:   1    -0.568446708057E+02    0.15359E-03   -0.34281E-01   210   0.134E+00    0.915E-02
DAV:   2    -0.568454559774E+02   -0.78517E-03   -0.94893E-03   280   0.339E-01    0.158E-01
DAV:   3    -0.568451500864E+02    0.30589E-03   -0.40600E-03   245   0.272E-01    0.833E-02
DAV:   4    -0.568450870787E+02    0.63008E-04   -0.77682E-04   280   0.104E-01    0.526E-02
DAV:   5    -0.568450593832E+02    0.27696E-04   -0.28858E-04   245   0.702E-02    0.395E-02
DAV:   6    -0.568450578826E+02    0.15006E-05   -0.29878E-04   245   0.656E-02    0.373E-02
DAV:   7    -0.568450438500E+02    0.14033E-04   -0.18435E-04   245   0.493E-02    0.168E-02
DAV:   8    -0.568450387959E+02    0.50541E-05   -0.50385E-05   140   0.291E-02
   4 F= -.56845039E+02 E0= -.56782989E+02  d E =-.733959E-03
 curvature:  -5.94 expect dE=-0.165E-02 dE for cont linesearch -0.677E-05
 trial: gam= 1.78086 g(F)=  0.278E-03 g(S)=  0.000E+00 ort =-0.137E-04 (trialstep = 0.612E+00)
 search vector abs. value=  0.750E-03
 bond charge predicted
       N       E                     dE             d eps       ncg     rms          rms(c)
DAV:   1    -0.568451692705E+02   -0.12542E-03   -0.16381E-02   210   0.294E-01    0.190E-02
DAV:   2    -0.568452030904E+02   -0.33820E-04   -0.38196E-04   280   0.674E-02    0.297E-02
DAV:   3    -0.568451940669E+02    0.90235E-05   -0.12801E-04   175   0.517E-02    0.183E-02
DAV:   4    -0.568451907453E+02    0.33216E-05   -0.23700E-05   140   0.203E-02
   5 F= -.56845191E+02 E0= -.56783163E+02  d E =-.151949E-03
 ZBRENT: can't locate minimum, use default step
 trial-energy change:   -0.000152  1 .order   -0.000151   -0.000156   -0.000146
 step:   2.4497(harm=  9.6468)  dis= 0.00276  next Energy=   -56.846264 (dE=-0.122E-02)
 bond charge predicted
       N       E                     dE             d eps       ncg     rms          rms(c)
DAV:   1    -0.568454389748E+02   -0.24491E-03   -0.14794E-01   210   0.882E-01    0.554E-02
DAV:   2    -0.568457443410E+02   -0.30537E-03   -0.30861E-03   280   0.206E-01    0.995E-02
DAV:   3    -0.568456552531E+02    0.89088E-04   -0.96949E-04   245   0.144E-01    0.567E-02
DAV:   4    -0.568456182812E+02    0.36972E-04   -0.19049E-04   245   0.549E-02    0.300E-02
DAV:   5    -0.568456082291E+02    0.10052E-04   -0.13273E-04   140   0.437E-02    0.279E-02
DAV:   6    -0.568456060578E+02    0.21712E-05   -0.18911E-04   245   0.522E-02    0.211E-02
DAV:   7    -0.568456002408E+02    0.58170E-05   -0.77244E-05   140   0.372E-02
   6 F= -.56845600E+02 E0= -.56783732E+02  d E =-.561445E-03
 curvature:  -5.20 expect dE=-0.115E-02 dE for cont linesearch -0.301E-03
 ZBRENT: increasing intervall
 opt :   6.1244  next Energy=   -56.846256 (dE=-0.122E-02)
 bond charge predicted
       N       E                     dE             d eps       ncg     rms          rms(c)
DAV:   1    -0.568455349110E+02    0.71147E-04   -0.59063E-01   210   0.176E+00    0.105E-01
DAV:   2    -0.568466979514E+02   -0.11630E-02   -0.12502E-02   280   0.406E-01    0.174E-01
DAV:   3    -0.568464016396E+02    0.29631E-03   -0.38226E-03   280   0.271E-01    0.102E-01
DAV:   4    -0.568462842424E+02    0.11740E-03   -0.62760E-04   245   0.993E-02    0.556E-02
DAV:   5    -0.568462588150E+02    0.25427E-04   -0.42956E-04   245   0.781E-02    0.536E-02
DAV:   6    -0.568462473419E+02    0.11473E-04   -0.54070E-04   280   0.870E-02    0.411E-02
DAV:   7    -0.568462257708E+02    0.21571E-04   -0.28587E-04   245   0.666E-02    0.210E-02
DAV:   8    -0.568462188386E+02    0.69322E-05   -0.62162E-05   140   0.318E-02
   7 F= -.56846219E+02 E0= -.56784457E+02  d E =-.118004E-02
 curvature: -11.35 expect dE=-0.181E-02 dE for cont linesearch -0.275E-03
 ZBRENT: increasing intervall
 opt :  13.4736  next Energy=   -56.846669 (dE=-0.163E-02)
 bond charge predicted
       N       E                     dE             d eps       ncg     rms          rms(c)
DAV:   1    -0.568438678056E+02    0.23580E-02   -0.23621E+00   210   0.352E+00    0.211E-01
DAV:   2    -0.568486368171E+02   -0.47690E-02   -0.51106E-02   280   0.840E-01    0.354E-01
DAV:   3    -0.568474013748E+02    0.12354E-02   -0.15452E-02   280   0.546E-01    0.203E-01
DAV:   4    -0.568469155170E+02    0.48586E-03   -0.24366E-03   245   0.199E-01    0.112E-01
DAV:   5    -0.568468145190E+02    0.10100E-03   -0.16917E-03   280   0.156E-01    0.107E-01
DAV:   6    -0.568467628213E+02    0.51698E-04   -0.21303E-03   280   0.175E-01    0.817E-02
DAV:   7    -0.568466789515E+02    0.83870E-04   -0.11854E-03   280   0.135E-01    0.435E-02
DAV:   8    -0.568466507304E+02    0.28221E-04   -0.28278E-04   245   0.663E-02    0.156E-02
DAV:   9    -0.568466476467E+02    0.30837E-05   -0.36494E-05   210   0.267E-02
   8 F= -.56846648E+02 E0= -.56785247E+02  d E =-.160885E-02
 curvature: -18.59 expect dE=-0.271E-02 dE for cont linesearch -0.739E-05
 trial: gam= 0.21725 g(F)=  0.146E-03 g(S)=  0.000E+00 ort =-0.173E-04 (trialstep = 0.318E+01)
 search vector abs. value=  0.174E-03
 bond charge predicted
       N       E                     dE             d eps       ncg     rms          rms(c)
DAV:   1    -0.568468526388E+02   -0.20191E-03   -0.10441E-01   210   0.744E-01    0.578E-02
DAV:   2    -0.568473492392E+02   -0.49660E-03   -0.61393E-03   280   0.265E-01    0.158E-01
DAV:   3    -0.568469949520E+02    0.35429E-03   -0.37620E-03   280   0.228E-01    0.382E-02
DAV:   4    -0.568469718611E+02    0.23091E-04   -0.19163E-04   245   0.507E-02    0.257E-02
DAV:   5    -0.568469664199E+02    0.54411E-05   -0.46652E-05   140   0.304E-02
   9 F= -.56846966E+02 E0= -.56785576E+02  d E =-.318773E-03
 trial-energy change:   -0.000319  1 .order   -0.000314   -0.000453   -0.000175
 step:   5.1856(harm=  5.1856)  dis= 0.00205  next Energy=   -56.847016 (dE=-0.368E-03)
 bond charge predicted
       N       E                     dE             d eps       ncg     rms          rms(c)
DAV:   1    -0.568469775652E+02   -0.57041E-05   -0.41518E-02   210   0.472E-01    0.423E-02
DAV:   2    -0.568472070654E+02   -0.22950E-03   -0.28540E-03   280   0.169E-01    0.112E-01
DAV:   3    -0.568470313113E+02    0.17575E-03   -0.18605E-03   245   0.156E-01    0.240E-02
DAV:   4    -0.568470199697E+02    0.11342E-04   -0.73005E-05   175   0.289E-02    0.176E-02
DAV:   5    -0.568470213630E+02   -0.13933E-05   -0.46191E-05   140   0.323E-02
  10 F= -.56847021E+02 E0= -.56785691E+02  d E =-.373716E-03
 curvature:  -3.17 expect dE=-0.875E-04 dE for cont linesearch -0.184E-11
 trial: gam= 0.16994 g(F)=  0.276E-04 g(S)=  0.000E+00 ort = 0.100E-07 (trialstep = 0.358E+01)
 search vector abs. value=  0.326E-04
 bond charge predicted
       N       E                     dE             d eps       ncg     rms          rms(c)
DAV:   1    -0.568470557529E+02   -0.35783E-04   -0.24386E-02   210   0.362E-01    0.246E-02
DAV:   2    -0.568471140156E+02   -0.58263E-04   -0.69176E-04   280   0.105E-01    0.415E-02
DAV:   3    -0.568470942845E+02    0.19731E-04   -0.27631E-04   245   0.728E-02    0.243E-02
DAV:   4    -0.568470878837E+02    0.64008E-05   -0.46233E-05   140   0.281E-02
  11 F= -.56847088E+02 E0= -.56785908E+02  d E =-.665207E-04
 trial-energy change:   -0.000067  1 .order   -0.000067   -0.000099   -0.000035
 step:   5.5246(harm=  5.5246)  dis= 0.00089  next Energy=   -56.847098 (dE=-0.763E-04)
 bond charge predicted
       N       E                     dE             d eps       ncg     rms          rms(c)
DAV:   1    -0.568470918158E+02    0.24687E-05   -0.72112E-03   210   0.198E-01    0.178E-02
DAV:   2    -0.568471193770E+02   -0.27561E-04   -0.23377E-04   280   0.589E-02    0.394E-02
DAV:   3    -0.568471043706E+02    0.15006E-04   -0.12355E-04   175   0.540E-02    0.171E-02
DAV:   4    -0.568471007463E+02    0.36243E-05   -0.19155E-05   140   0.196E-02
  12 F= -.56847101E+02 E0= -.56785905E+02  d E =-.793833E-04
 curvature:  -3.26 expect dE=-0.506E-04 dE for cont linesearch -0.459E-06
 trial: gam= 0.43327 g(F)=  0.155E-04 g(S)=  0.000E+00 ort = 0.214E-05 (trialstep = 0.397E+01)
 search vector abs. value=  0.235E-04
 reached required accuracy - stopping structural energy minimisation
