 running on   40 total cores
 each image running on    8 cores
 distrk:  each k-point on    8 cores,    1 groups
 distr:  one band on    1 cores,    8 groups
 vasp.5.4.1 24Jun15 (build Nov 26 2018 14:23:16) complex                        
  
 POSCAR found type information on POSCAR  C  N  H 
 01/POSCAR found :  3 types and       3 ions
 scaLAPACK will be used

 ----------------------------------------------------------------------------- 
|                                                                             |
|           W    W    AA    RRRRR   N    N  II  N    N   GGGG   !!!           |
|           W    W   A  A   R    R  NN   N  II  NN   N  G    G  !!!           |
|           W    W  A    A  R    R  N N  N  II  N N  N  G       !!!           |
|           W WW W  AAAAAA  RRRRR   N  N N  II  N  N N  G  GGG   !            |
|           WW  WW  A    A  R   R   N   NN  II  N   NN  G    G                |
|           W    W  A    A  R    R  N    N  II  N    N   GGGG   !!!           |
|                                                                             |
|      For optimal performance we recommend to set                            |
|        NCORE= 4 - approx SQRT( number of cores)                             |
|      NCORE specifies how many cores store one orbital (NPAR=cpu/NCORE).     |
|      This setting can  greatly improve the performance of VASP for DFT.     |
|      The default, NPAR=number of cores might be grossly inefficient         |
|      on modern multi-core architectures or massively parallel machines.     |
|      Do your own testing !!!!                                               |
|      Unfortunately you need to use the default for GW and RPA calculations. |
|      (for HF NCORE is supported but not extensively tested yet)             |
|                                                                             |
 ----------------------------------------------------------------------------- 

 LDA part: xc-table for Ceperly-Alder, standard interpolation
 POSCAR found type information on POSCAR  C  N  H 
 00/POSCAR found :  3 types and       3 ions
 POSCAR found type information on POSCAR  C  N  H 
 06/POSCAR found :  3 types and       3 ions
 Jacobian:    24.0187391035201     
 POSCAR, INCAR and KPOINTS ok, starting setup
 WARNING: small aliasing (wrap around) errors must be expected
 FFT: planning ...
 WAVECAR not read
 entering main loop
       N       E                     dE             d eps       ncg     rms          rms(c)
DAV:   1     0.764068400749E+02    0.76407E+02   -0.19824E+03    48   0.247E+02
DAV:   2    -0.585312162866E+01   -0.82260E+02   -0.81732E+02    48   0.806E+01
DAV:   3    -0.210798417391E+02   -0.15227E+02   -0.15173E+02    48   0.438E+01
DAV:   4    -0.215104971251E+02   -0.43066E+00   -0.43063E+00    40   0.102E+01
DAV:   5    -0.215110077021E+02   -0.51058E-03   -0.51057E-03    48   0.339E-01    0.116E+01
DAV:   6    -0.173085091929E+02    0.42025E+01   -0.89986E+00    40   0.133E+01    0.519E+00
DAV:   7    -0.165138598756E+02    0.79465E+00   -0.28200E+00    48   0.743E+00    0.164E+00
DAV:   8    -0.164536832205E+02    0.60177E-01   -0.14518E-01    64   0.167E+00    0.811E-01
DAV:   9    -0.164244891099E+02    0.29194E-01   -0.26605E-02    56   0.798E-01    0.160E-01
DAV:  10    -0.164211441214E+02    0.33450E-02   -0.52577E-03    48   0.309E-01    0.102E-01
DAV:  11    -0.164218213246E+02   -0.67720E-03   -0.61674E-03    40   0.409E-01    0.539E-02
DAV:  12    -0.164268567369E+02   -0.50354E-02   -0.21129E-03    40   0.285E-01    0.334E-02
DAV:  13    -0.164322510925E+02   -0.53944E-02   -0.32934E-03    32   0.303E-01    0.327E-02
DAV:  14    -0.164337491250E+02   -0.14980E-02   -0.39558E-04    48   0.836E-02    0.134E-02
DAV:  15    -0.164357388081E+02   -0.19897E-02   -0.10636E-03    40   0.173E-01    0.327E-02
DAV:  16    -0.164359882338E+02   -0.24943E-03   -0.26640E-04    48   0.872E-02    0.804E-03
DAV:  17    -0.164362778919E+02   -0.28966E-03   -0.23160E-04    32   0.949E-02    0.162E-02
DAV:  18    -0.164365459431E+02   -0.26805E-03   -0.49425E-04    48   0.144E-01    0.129E-02
DAV:  19    -0.164366707364E+02   -0.12479E-03   -0.26944E-04    32   0.113E-01    0.568E-03
DAV:  20    -0.164367564597E+02   -0.85723E-04   -0.15506E-05    48   0.225E-02    0.480E-03
DAV:  21    -0.164368049383E+02   -0.48479E-04   -0.11386E-05    32   0.220E-02    0.114E-03
DAV:  22    -0.164368278884E+02   -0.22950E-04   -0.16494E-06    32   0.649E-03    0.109E-03
DAV:  23    -0.164368371797E+02   -0.92913E-05   -0.45765E-07    32   0.396E-03
   1 F= -.16436837E+02 E0= -.16436837E+02  d E =-.164368E+02
quench:  g(F)=  0.000E+00 g(S)=  0.000E+00 dE (1.order)= 0.000E+00
 bond charge predicted
       N       E                     dE             d eps       ncg     rms          rms(c)
DAV:   1    -0.164756355763E+02   -0.38808E-01   -0.33765E-03    64   0.333E-01    0.333E-02
DAV:   2    -0.164755957203E+02    0.39856E-04   -0.30168E-04    64   0.110E-01    0.144E-02
DAV:   3    -0.164755893103E+02    0.64100E-05   -0.64216E-05    40   0.375E-02
   2 F= -.16475589E+02 E0= -.16475589E+02  d E =-.387521E-01
quench:  g(F)=  0.000E+00 g(S)=  0.000E+00 dE (1.order)= 0.000E+00
 bond charge predicted
       N       E                     dE             d eps       ncg     rms          rms(c)
DAV:   1    -0.171397662506E+02   -0.66417E+00   -0.11927E+00    32   0.627E+00    0.592E-01
DAV:   2    -0.171308317952E+02    0.89345E-02   -0.45382E-02    56   0.898E-01    0.266E-01
DAV:   3    -0.171292558789E+02    0.15759E-02   -0.65447E-03    48   0.374E-01    0.914E-02
DAV:   4    -0.171291485519E+02    0.10733E-03   -0.55750E-04    48   0.133E-01    0.306E-02
DAV:   5    -0.171291581647E+02   -0.96128E-05   -0.69053E-05    48   0.401E-02
   3 F= -.17129158E+02 E0= -.17129158E+02  d E =-.653569E+00
quench:  g(F)=  0.000E+00 g(S)=  0.000E+00 dE (1.order)= 0.000E+00
 bond charge predicted
       N       E                     dE             d eps       ncg     rms          rms(c)
DAV:   1    -0.181856134683E+02   -0.10565E+01   -0.59102E+00    32   0.138E+01    0.124E+00
DAV:   2    -0.181451182452E+02    0.40495E-01   -0.22151E-01    56   0.194E+00    0.568E-01
DAV:   3    -0.181382817830E+02    0.68365E-02   -0.31298E-02    48   0.781E-01    0.212E-01
DAV:   4    -0.181376781640E+02    0.60362E-03   -0.37010E-03    32   0.322E-01    0.663E-02
DAV:   5    -0.181377094720E+02   -0.31308E-04   -0.30633E-04    40   0.871E-02    0.175E-02
DAV:   6    -0.181377217572E+02   -0.12285E-04   -0.50395E-05    48   0.371E-02    0.717E-03
DAV:   7    -0.181377435467E+02   -0.21789E-04   -0.15443E-05    32   0.148E-02    0.274E-03
DAV:   8    -0.181377622738E+02   -0.18727E-04   -0.42191E-06    40   0.719E-03    0.145E-03
DAV:   9    -0.181377870327E+02   -0.24759E-04   -0.62132E-06    32   0.860E-03    0.118E-03
DAV:  10    -0.181378009653E+02   -0.13933E-04   -0.21807E-06    32   0.454E-03    0.910E-04
DAV:  11    -0.181378104361E+02   -0.94708E-05   -0.11696E-06    48   0.371E-03
   4 F= -.18137810E+02 E0= -.18137810E+02  d E =-.100865E+01
quench:  g(F)=  0.000E+00 g(S)=  0.000E+00 dE (1.order)= 0.000E+00
 bond charge predicted
       N       E                     dE             d eps       ncg     rms          rms(c)
DAV:   1    -0.186695148622E+02   -0.53171E+00   -0.46098E+00    32   0.120E+01    0.988E-01
DAV:   2    -0.186460586956E+02    0.23456E-01   -0.15397E-01    48   0.162E+00    0.487E-01
DAV:   3    -0.186409496540E+02    0.51090E-02   -0.25902E-02    48   0.656E-01    0.192E-01
DAV:   4    -0.186403481304E+02    0.60152E-03   -0.39246E-03    40   0.312E-01    0.573E-02
DAV:   5    -0.186403677697E+02   -0.19639E-04   -0.23540E-04    48   0.757E-02    0.208E-02
DAV:   6    -0.186403818865E+02   -0.14117E-04   -0.21755E-05    32   0.257E-02    0.407E-03
DAV:   7    -0.186403930904E+02   -0.11204E-04   -0.38235E-06    32   0.901E-03    0.227E-03
DAV:   8    -0.186404046835E+02   -0.11593E-04   -0.38256E-06    32   0.765E-03    0.127E-03
DAV:   9    -0.186404173900E+02   -0.12707E-04   -0.36148E-06    32   0.637E-03    0.988E-04
DAV:  10    -0.186404219083E+02   -0.45183E-05   -0.10881E-06    32   0.328E-03
   5 F= -.18640422E+02 E0= -.18640422E+02  d E =-.502611E+00
quench:  g(F)=  0.000E+00 g(S)=  0.000E+00 dE (1.order)= 0.000E+00
 bond charge predicted
       N       E                     dE             d eps       ncg     rms          rms(c)
DAV:   1    -0.189260103079E+02   -0.28559E+00   -0.31846E+00    32   0.989E+00    0.712E-01
DAV:   2    -0.189163653513E+02    0.96450E-02   -0.73894E-02    40   0.122E+00    0.376E-01
DAV:   3    -0.189131532319E+02    0.32121E-02   -0.17029E-02    48   0.504E-01    0.153E-01
DAV:   4    -0.189127992451E+02    0.35399E-03   -0.29795E-03    32   0.240E-01    0.486E-02
DAV:   5    -0.189128070040E+02   -0.77589E-05   -0.15646E-04    48   0.610E-02    0.223E-02
DAV:   6    -0.189128203294E+02   -0.13325E-04   -0.24854E-05    32   0.273E-02    0.345E-03
DAV:   7    -0.189128290334E+02   -0.87039E-05   -0.27277E-06    40   0.740E-03
   6 F= -.18912829E+02 E0= -.18912829E+02  d E =-.272407E+00
quench:  g(F)=  0.000E+00 g(S)=  0.000E+00 dE (1.order)= 0.000E+00
 bond charge predicted
       N       E                     dE             d eps       ncg     rms          rms(c)
DAV:   1    -0.190979033880E+02   -0.18508E+00   -0.19020E+00    32   0.770E+00    0.499E-01
DAV:   2    -0.190948974192E+02    0.30060E-02   -0.25711E-02    40   0.834E-01    0.276E-01
DAV:   3    -0.190933139050E+02    0.15835E-02   -0.10743E-02    48   0.422E-01    0.863E-02
DAV:   4    -0.190932204110E+02    0.93494E-04   -0.12019E-03    40   0.123E-01    0.385E-02
DAV:   5    -0.190932151999E+02    0.52111E-05   -0.11826E-04    40   0.490E-02    0.186E-02
DAV:   6    -0.190932368998E+02   -0.21700E-04   -0.21192E-05    40   0.239E-02    0.439E-03
DAV:   7    -0.190932505403E+02   -0.13640E-04   -0.33722E-06    32   0.729E-03    0.179E-03
DAV:   8    -0.190932647796E+02   -0.14239E-04   -0.25464E-06    32   0.588E-03    0.904E-04
DAV:   9    -0.190932776415E+02   -0.12862E-04   -0.37984E-06    32   0.671E-03    0.745E-04
DAV:  10    -0.190932825413E+02   -0.48998E-05   -0.79006E-07    40   0.310E-03
   7 F= -.19093283E+02 E0= -.19093283E+02  d E =-.180454E+00
quench:  g(F)=  0.000E+00 g(S)=  0.000E+00 dE (1.order)= 0.000E+00
 bond charge predicted
       N       E                     dE             d eps       ncg     rms          rms(c)
DAV:   1    -0.192112702001E+02   -0.11799E+00   -0.17384E+00    32   0.721E+00    0.471E-01
DAV:   2    -0.192089697008E+02    0.23005E-02   -0.23354E-02    32   0.768E-01    0.265E-01
DAV:   3    -0.192077082794E+02    0.12614E-02   -0.64348E-03    40   0.340E-01    0.533E-02
DAV:   4    -0.192077344732E+02   -0.26194E-04   -0.21931E-04    32   0.748E-02    0.273E-02
DAV:   5    -0.192077538000E+02   -0.19327E-04   -0.59071E-05    40   0.334E-02    0.765E-03
DAV:   6    -0.192077672658E+02   -0.13466E-04   -0.83368E-06    40   0.115E-02    0.301E-03
DAV:   7    -0.192077855382E+02   -0.18272E-04   -0.34136E-06    32   0.695E-03    0.120E-03
DAV:   8    -0.192077964308E+02   -0.10893E-04   -0.12649E-06    40   0.402E-03    0.701E-04
DAV:   9    -0.192078101573E+02   -0.13727E-04   -0.26577E-06    32   0.542E-03    0.473E-04
DAV:  10    -0.192078134196E+02   -0.32623E-05   -0.46843E-07    40   0.234E-03
   8 F= -.19207813E+02 E0= -.19207813E+02  d E =-.114531E+00
quench:  g(F)=  0.000E+00 g(S)=  0.000E+00 dE (1.order)= 0.000E+00
 bond charge predicted
       N       E                     dE             d eps       ncg     rms          rms(c)
DAV:   1    -0.192512976958E+02   -0.43488E-01   -0.11441E+00    32   0.577E+00    0.360E-01
DAV:   2    -0.192500839214E+02    0.12138E-02   -0.15644E-02    32   0.617E-01    0.207E-01
DAV:   3    -0.192493023967E+02    0.78152E-03   -0.35961E-03    40   0.253E-01    0.493E-02
DAV:   4    -0.192493273676E+02   -0.24971E-04   -0.26151E-04    32   0.677E-02    0.230E-02
DAV:   5    -0.192493379946E+02   -0.10627E-04   -0.57383E-05    40   0.303E-02    0.996E-03
DAV:   6    -0.192493525890E+02   -0.14594E-04   -0.92106E-06    40   0.140E-02    0.234E-03
DAV:   7    -0.192493674122E+02   -0.14823E-04   -0.20968E-06    32   0.562E-03    0.104E-03
DAV:   8    -0.192493796225E+02   -0.12210E-04   -0.15587E-06    32   0.438E-03    0.606E-04
DAV:   9    -0.192493896516E+02   -0.10029E-04   -0.11327E-06    32   0.351E-03    0.362E-04
DAV:  10    -0.192493951127E+02   -0.54610E-05   -0.97383E-07    32   0.331E-03
   9 F= -.19249395E+02 E0= -.19249395E+02  d E =-.415817E-01
quench:  g(F)=  0.000E+00 g(S)=  0.000E+00 dE (1.order)= 0.000E+00
 bond charge predicted
       N       E                     dE             d eps       ncg     rms          rms(c)
DAV:   1    -0.192589308241E+02   -0.95412E-02   -0.33316E-01    32   0.309E+00    0.179E-01
DAV:   2    -0.192586661237E+02    0.26470E-03   -0.64422E-03    32   0.354E-01    0.106E-01
DAV:   3    -0.192585191409E+02    0.14698E-03   -0.70959E-04    48   0.108E-01    0.494E-02
DAV:   4    -0.192584753389E+02    0.43802E-04   -0.19275E-04    32   0.650E-02    0.102E-02
DAV:   5    -0.192584821639E+02   -0.68250E-05   -0.21590E-05    32   0.235E-02
  10 F= -.19258482E+02 E0= -.19258482E+02  d E =-.908705E-02
quench:  g(F)=  0.000E+00 g(S)=  0.000E+00 dE (1.order)= 0.000E+00
 bond charge predicted
       N       E                     dE             d eps       ncg     rms          rms(c)
DAV:   1    -0.192642939853E+02   -0.58186E-02   -0.18880E-01    40   0.233E+00    0.105E-01
DAV:   2    -0.192643495645E+02   -0.55579E-04   -0.18859E-03    40   0.214E-01    0.636E-02
DAV:   3    -0.192642779101E+02    0.71654E-04   -0.32718E-04    48   0.799E-02    0.116E-02
DAV:   4    -0.192642830725E+02   -0.51623E-05   -0.27008E-05    32   0.260E-02
  11 F= -.19264283E+02 E0= -.19264283E+02  d E =-.580091E-02
quench:  g(F)=  0.000E+00 g(S)=  0.000E+00 dE (1.order)= 0.000E+00
 bond charge predicted
       N       E                     dE             d eps       ncg     rms          rms(c)
DAV:   1    -0.192840982419E+02   -0.19820E-01   -0.47749E+00    32   0.117E+01    0.535E-01
DAV:   2    -0.192848087453E+02   -0.71050E-03   -0.61805E-02    40   0.115E+00    0.326E-01
DAV:   3    -0.192834720182E+02    0.13367E-02   -0.53079E-03    40   0.295E-01    0.135E-01
DAV:   4    -0.192832661581E+02    0.20586E-03   -0.17764E-03    32   0.190E-01    0.412E-02
DAV:   5    -0.192833098958E+02   -0.43738E-04   -0.20179E-04    48   0.687E-02    0.196E-02
DAV:   6    -0.192833857670E+02   -0.75871E-04   -0.37485E-05    32   0.333E-02    0.389E-03
DAV:   7    -0.192834469922E+02   -0.61225E-04   -0.53364E-06    32   0.959E-03    0.194E-03
DAV:   8    -0.192835143962E+02   -0.67404E-04   -0.55057E-06    32   0.784E-03    0.125E-03
DAV:   9    -0.192835988499E+02   -0.84454E-04   -0.12451E-05    32   0.116E-02    0.789E-04
DAV:  10    -0.192836362470E+02   -0.37397E-04   -0.46657E-06    32   0.729E-03    0.490E-04
DAV:  11    -0.192836518599E+02   -0.15613E-04   -0.60194E-07    32   0.353E-03    0.226E-04
DAV:  12    -0.192836563679E+02   -0.45080E-05   -0.21350E-07    32   0.218E-03
  12 F= -.19283656E+02 E0= -.19283656E+02  d E =-.193733E-01
quench:  g(F)=  0.000E+00 g(S)=  0.000E+00 dE (1.order)= 0.000E+00
 bond charge predicted
       N       E                     dE             d eps       ncg     rms          rms(c)
DAV:   1    -0.192391393622E+02    0.44512E-01   -0.83278E+01    40   0.490E+01    0.245E+00
DAV:   2    -0.192815394451E+02   -0.42400E-01   -0.17898E+00    48   0.602E+00    0.154E+00
DAV:   3    -0.192562087323E+02    0.25331E-01   -0.20896E-01    40   0.146E+00    0.813E-01
DAV:   4    -0.192501630016E+02    0.60457E-02   -0.49264E-02    32   0.840E-01    0.186E-01
DAV:   5    -0.192503945058E+02   -0.23150E-03   -0.23048E-03    48   0.254E-01    0.936E-02
DAV:   6    -0.192505025190E+02   -0.10801E-03   -0.76489E-04    40   0.126E-01    0.233E-02
DAV:   7    -0.192507097891E+02   -0.20727E-03   -0.10268E-04    32   0.442E-02    0.109E-02
DAV:   8    -0.192513539663E+02   -0.64418E-03   -0.15640E-04    32   0.490E-02    0.603E-03
DAV:   9    -0.192517247375E+02   -0.37077E-03   -0.64440E-05    32   0.266E-02    0.581E-03
DAV:  10    -0.192521182174E+02   -0.39348E-03   -0.11531E-04    32   0.351E-02    0.366E-03
DAV:  11    -0.192521806230E+02   -0.62406E-04   -0.60233E-06    48   0.108E-02    0.172E-03
DAV:  12    -0.192522292186E+02   -0.48596E-04   -0.22177E-06    32   0.817E-03    0.822E-04
DAV:  13    -0.192522648606E+02   -0.35642E-04   -0.18641E-06    32   0.642E-03    0.525E-04
DAV:  14    -0.192522771466E+02   -0.12286E-04   -0.44763E-07    32   0.247E-03    0.264E-04
DAV:  15    -0.192522830682E+02   -0.59216E-05   -0.28862E-07    32   0.169E-03
  13 F= -.19252283E+02 E0= -.19252283E+02  d E =0.313733E-01
quench:  g(F)=  0.000E+00 g(S)=  0.000E+00 dE (1.order)= 0.000E+00
 bond charge predicted
       N       E                     dE             d eps       ncg     rms          rms(c)
DAV:   1    -0.192536011826E+02   -0.13240E-02   -0.51686E+01    40   0.378E+01    0.150E+00
DAV:   2    -0.192925101385E+02   -0.38909E-01   -0.69091E-01    40   0.399E+00    0.959E-01
DAV:   3    -0.192844366160E+02    0.80735E-02   -0.45535E-02    32   0.810E-01    0.405E-01
DAV:   4    -0.192834706254E+02    0.96599E-03   -0.22639E-02    40   0.472E-01    0.157E-01
DAV:   5    -0.192831020470E+02    0.36858E-03   -0.33713E-03    48   0.193E-01    0.589E-02
DAV:   6    -0.192832671964E+02   -0.16515E-03   -0.28289E-04    32   0.949E-02    0.191E-02
DAV:   7    -0.192834611792E+02   -0.19398E-03   -0.60134E-05    40   0.312E-02    0.692E-03
DAV:   8    -0.192838181260E+02   -0.35695E-03   -0.54361E-05    32   0.278E-02    0.335E-03
DAV:   9    -0.192841339016E+02   -0.31578E-03   -0.59535E-05    32   0.262E-02    0.406E-03
DAV:  10    -0.192843734906E+02   -0.23959E-03   -0.54003E-05    32   0.239E-02    0.119E-03
DAV:  11    -0.192844192485E+02   -0.45758E-04   -0.32512E-06    48   0.879E-03    0.143E-03
DAV:  12    -0.192844525090E+02   -0.33261E-04   -0.15106E-06    32   0.662E-03    0.698E-04
DAV:  13    -0.192844648607E+02   -0.12352E-04   -0.69449E-07    32   0.357E-03    0.443E-04
DAV:  14    -0.192844695474E+02   -0.46868E-05   -0.16026E-07    32   0.141E-03
  14 F= -.19284470E+02 E0= -.19284470E+02  d E =-.321865E-01
quench:  g(F)=  0.000E+00 g(S)=  0.000E+00 dE (1.order)= 0.000E+00
 bond charge predicted
       N       E                     dE             d eps       ncg     rms          rms(c)
DAV:   1    -0.196591199462E+02   -0.37466E+00   -0.29861E+01    40   0.300E+01    0.183E+00
DAV:   2    -0.195971790341E+02    0.61941E-01   -0.82488E-01    48   0.379E+00    0.966E-01
DAV:   3    -0.195764736854E+02    0.20705E-01   -0.79573E-02    64   0.114E+00    0.447E-01
DAV:   4    -0.195723268897E+02    0.41468E-02   -0.30420E-02    40   0.802E-01    0.125E-01
DAV:   5    -0.195724305268E+02   -0.10364E-03   -0.30518E-03    32   0.250E-01    0.626E-02
DAV:   6    -0.195727022110E+02   -0.27168E-03   -0.32770E-04    32   0.100E-01    0.122E-02
DAV:   7    -0.195730257981E+02   -0.32359E-03   -0.48139E-05    40   0.328E-02    0.773E-03
DAV:   8    -0.195735374859E+02   -0.51169E-03   -0.79361E-05    40   0.354E-02    0.452E-03
DAV:   9    -0.195737274572E+02   -0.18997E-03   -0.17178E-05    56   0.152E-02    0.235E-03
DAV:  10    -0.195740067916E+02   -0.27933E-03   -0.54477E-05    32   0.261E-02    0.189E-03
DAV:  11    -0.195740416711E+02   -0.34880E-04   -0.38684E-06    48   0.907E-03    0.119E-03
DAV:  12    -0.195740843741E+02   -0.42703E-04   -0.32538E-06    32   0.781E-03    0.502E-04
DAV:  13    -0.195740971414E+02   -0.12767E-04   -0.53499E-07    32   0.260E-03    0.366E-04
DAV:  14    -0.195741063480E+02   -0.92066E-05   -0.33588E-07    32   0.200E-03
  15 F= -.19574106E+02 E0= -.19574106E+02  d E =-.289637E+00
quench:  g(F)=  0.000E+00 g(S)=  0.000E+00 dE (1.order)= 0.000E+00
 bond charge predicted
       N       E                     dE             d eps       ncg     rms          rms(c)
DAV:   1    -0.196381853188E+02   -0.64088E-01   -0.37240E+00    48   0.106E+01    0.619E-01
DAV:   2    -0.196337804896E+02    0.44048E-02   -0.10031E-01    48   0.126E+00    0.335E-01
DAV:   3    -0.196325094640E+02    0.12710E-02   -0.72682E-03    32   0.329E-01    0.179E-01
DAV:   4    -0.196321082275E+02    0.40124E-03   -0.22576E-03    40   0.229E-01    0.346E-02
DAV:   5    -0.196321375158E+02   -0.29288E-04   -0.27202E-04    32   0.803E-02    0.157E-02
DAV:   6    -0.196321785516E+02   -0.41036E-04   -0.35536E-05    32   0.265E-02    0.427E-03
DAV:   7    -0.196322021001E+02   -0.23548E-04   -0.35562E-06    32   0.835E-03    0.209E-03
DAV:   8    -0.196322431406E+02   -0.41041E-04   -0.74035E-06    32   0.967E-03    0.114E-03
DAV:   9    -0.196322670090E+02   -0.23868E-04   -0.30939E-06    32   0.570E-03    0.747E-04
DAV:  10    -0.196322799848E+02   -0.12976E-04   -0.27663E-06    32   0.528E-03    0.444E-04
DAV:  11    -0.196322882009E+02   -0.82161E-05   -0.54154E-07    32   0.269E-03
  16 F= -.19632288E+02 E0= -.19632288E+02  d E =-.581819E-01
quench:  g(F)=  0.000E+00 g(S)=  0.000E+00 dE (1.order)= 0.000E+00
 bond charge predicted
       N       E                     dE             d eps       ncg     rms          rms(c)
DAV:   1    -0.192359260057E+02    0.39635E+00   -0.10659E+02    32   0.553E+01    0.259E+00
DAV:   2    -0.193216080198E+02   -0.85682E-01   -0.25073E+00    48   0.703E+00    0.168E+00
DAV:   3    -0.192874097851E+02    0.34198E-01   -0.18955E-01    48   0.148E+00    0.910E-01
DAV:   4    -0.192801876692E+02    0.72221E-02   -0.65347E-02    32   0.110E+00    0.190E-01
DAV:   5    -0.192800742915E+02    0.11338E-03   -0.35476E-03    48   0.299E-01    0.103E-01
DAV:   6    -0.192803466790E+02   -0.27239E-03   -0.82662E-04    48   0.149E-01    0.167E-02
DAV:   7    -0.192806696416E+02   -0.32296E-03   -0.67138E-05    48   0.458E-02    0.102E-02
DAV:   8    -0.192814189784E+02   -0.74934E-03   -0.16620E-04    32   0.566E-02    0.503E-03
DAV:   9    -0.192818254066E+02   -0.40643E-03   -0.57268E-05    32   0.276E-02    0.353E-03
DAV:  10    -0.192822973569E+02   -0.47195E-03   -0.14297E-04    32   0.393E-02    0.196E-03
DAV:  11    -0.192823568383E+02   -0.59481E-04   -0.67472E-06    56   0.120E-02    0.125E-03
DAV:  12    -0.192824216668E+02   -0.64828E-04   -0.24447E-06    48   0.861E-03    0.790E-04
DAV:  13    -0.192824567854E+02   -0.35119E-04   -0.24687E-06    48   0.610E-03    0.418E-04
DAV:  14    -0.192824715349E+02   -0.14750E-04   -0.72648E-07    32   0.324E-03    0.295E-04
DAV:  15    -0.192824766085E+02   -0.50736E-05   -0.17059E-07    32   0.202E-03
  17 F= -.19282477E+02 E0= -.19282477E+02  d E =0.349812E+00
quench:  g(F)=  0.000E+00 g(S)=  0.000E+00 dE (1.order)= 0.000E+00
 bond charge predicted
       N       E                     dE             d eps       ncg     rms          rms(c)
DAV:   1    -0.196076341527E+02   -0.32516E+00   -0.69250E+01    40   0.447E+01    0.194E+00
DAV:   2    -0.196352777877E+02   -0.27644E-01   -0.11247E+00    40   0.486E+00    0.117E+00
DAV:   3    -0.196217532202E+02    0.13525E-01   -0.46990E-02    32   0.101E+00    0.487E-01
DAV:   4    -0.196205314754E+02    0.12217E-02   -0.15936E-02    32   0.491E-01    0.154E-01
DAV:   5    -0.196203540283E+02    0.17745E-03   -0.39002E-03    48   0.218E-01    0.709E-02
DAV:   6    -0.196207008277E+02   -0.34680E-03   -0.45016E-04    32   0.102E-01    0.238E-02
DAV:   7    -0.196210179736E+02   -0.31715E-03   -0.12048E-04    32   0.449E-02    0.726E-03
DAV:   8    -0.196215159404E+02   -0.49797E-03   -0.72390E-05    32   0.332E-02    0.496E-03
DAV:   9    -0.196220271482E+02   -0.51121E-03   -0.95097E-05    32   0.340E-02    0.323E-03
DAV:  10    -0.196223716487E+02   -0.34450E-03   -0.80626E-05    32   0.306E-02    0.184E-03
DAV:  11    -0.196224617455E+02   -0.90097E-04   -0.81723E-06    48   0.133E-02    0.968E-04
DAV:  12    -0.196224870965E+02   -0.25351E-04   -0.10131E-06    32   0.579E-03    0.766E-04
DAV:  13    -0.196225221775E+02   -0.35081E-04   -0.18807E-06    32   0.547E-03    0.332E-04
DAV:  14    -0.196225279078E+02   -0.57303E-05   -0.15347E-07    32   0.138E-03
  18 F= -.19622528E+02 E0= -.19622528E+02  d E =-.340051E+00
quench:  g(F)=  0.000E+00 g(S)=  0.000E+00 dE (1.order)= 0.000E+00
 bond charge predicted
       N       E                     dE             d eps       ncg     rms          rms(c)
DAV:   1    -0.196103603309E+02    0.12162E-01   -0.35217E+00    32   0.101E+01    0.447E-01
DAV:   2    -0.196110857291E+02   -0.72540E-03   -0.46549E-02    40   0.101E+00    0.276E-01
DAV:   3    -0.196099819882E+02    0.11037E-02   -0.40570E-03    48   0.261E-01    0.103E-01
DAV:   4    -0.196098349264E+02    0.14706E-03   -0.99968E-04    32   0.141E-01    0.327E-02
DAV:   5    -0.196098481602E+02   -0.13234E-04   -0.11153E-04    32   0.472E-02    0.161E-02
DAV:   6    -0.196098794391E+02   -0.31279E-04   -0.20224E-05    32   0.250E-02    0.325E-03
DAV:   7    -0.196099182021E+02   -0.38763E-04   -0.40926E-06    48   0.819E-03    0.168E-03
DAV:   8    -0.196099658750E+02   -0.47673E-04   -0.66800E-06    32   0.882E-03    0.120E-03
DAV:   9    -0.196100098007E+02   -0.43926E-04   -0.80921E-06    32   0.910E-03    0.544E-04
DAV:  10    -0.196100251842E+02   -0.15384E-04   -0.18533E-06    40   0.424E-03    0.394E-04
DAV:  11    -0.196100378365E+02   -0.12652E-04   -0.48146E-07    32   0.274E-03    0.200E-04
DAV:  12    -0.196100409066E+02   -0.30701E-05   -0.10900E-07    32   0.180E-03
  19 F= -.19610041E+02 E0= -.19610041E+02  d E =0.124870E-01
quench:  g(F)=  0.000E+00 g(S)=  0.000E+00 dE (1.order)= 0.000E+00
 bond charge predicted
       N       E                     dE             d eps       ncg     rms          rms(c)
DAV:   1    -0.196076431108E+02    0.23947E-02   -0.12016E-01    32   0.182E+00    0.163E-01
DAV:   2    -0.196071522622E+02    0.49085E-03   -0.65967E-03    56   0.275E-01    0.798E-02
DAV:   3    -0.196070802934E+02    0.71969E-04   -0.53223E-04    32   0.844E-02    0.418E-02
DAV:   4    -0.196070571646E+02    0.23129E-04   -0.11715E-04    32   0.556E-02    0.903E-03
DAV:   5    -0.196070584619E+02   -0.12974E-05   -0.17495E-05    32   0.193E-02
  20 F= -.19607058E+02 E0= -.19607058E+02  d E =0.298244E-02
quench:  g(F)=  0.000E+00 g(S)=  0.000E+00 dE (1.order)= 0.000E+00
 bond charge predicted
       N       E                     dE             d eps       ncg     rms          rms(c)
DAV:   1    -0.195934883634E+02    0.13569E-01   -0.38293E-01    48   0.341E+00    0.173E-01
DAV:   2    -0.195932357060E+02    0.25266E-03   -0.78826E-03    40   0.358E-01    0.942E-02
DAV:   3    -0.195931430127E+02    0.92693E-04   -0.56007E-04    32   0.898E-02    0.502E-02
DAV:   4    -0.195931009382E+02    0.42075E-04   -0.19913E-04    40   0.705E-02    0.106E-02
DAV:   5    -0.195931049391E+02   -0.40009E-05   -0.25561E-05    32   0.242E-02
  21 F= -.19593105E+02 E0= -.19593105E+02  d E =0.139535E-01
quench:  g(F)=  0.000E+00 g(S)=  0.000E+00 dE (1.order)= 0.000E+00
 bond charge predicted
       N       E                     dE             d eps       ncg     rms          rms(c)
DAV:   1    -0.195842702385E+02    0.88307E-02   -0.30210E-01    32   0.297E+00    0.123E-01
DAV:   2    -0.195844172821E+02   -0.14704E-03   -0.30257E-03    40   0.268E-01    0.778E-02
DAV:   3    -0.195843245961E+02    0.92686E-04   -0.27850E-04    40   0.700E-02    0.152E-02
DAV:   4    -0.195843249643E+02   -0.36818E-06   -0.25851E-05    48   0.243E-02
  22 F= -.19584325E+02 E0= -.19584325E+02  d E =0.877997E-02
quench:  g(F)=  0.000E+00 g(S)=  0.000E+00 dE (1.order)= 0.000E+00
 bond charge predicted
       N       E                     dE             d eps       ncg     rms          rms(c)
DAV:   1    -0.195698457935E+02    0.14479E-01   -0.49610E-01    32   0.394E+00    0.183E-01
DAV:   2    -0.195697288968E+02    0.11690E-03   -0.57939E-03    40   0.373E-01    0.108E-01
DAV:   3    -0.195695580557E+02    0.17084E-03   -0.89816E-04    40   0.110E-01    0.479E-02
DAV:   4    -0.195695256670E+02    0.32389E-04   -0.24358E-04    32   0.663E-02    0.135E-02
DAV:   5    -0.195695286534E+02   -0.29864E-05   -0.17321E-05    48   0.194E-02
  23 F= -.19569529E+02 E0= -.19569529E+02  d E =0.147963E-01
quench:  g(F)=  0.000E+00 g(S)=  0.000E+00 dE (1.order)= 0.000E+00
 bond charge predicted
       N       E                     dE             d eps       ncg     rms          rms(c)
DAV:   1    -0.195706318710E+02   -0.11062E-02   -0.34705E-02    32   0.104E+00    0.615E-02
DAV:   2    -0.195706028939E+02    0.28977E-04   -0.62688E-04    48   0.122E-01    0.350E-02
DAV:   3    -0.195705735231E+02    0.29371E-04   -0.14446E-04    40   0.459E-02    0.144E-02
DAV:   4    -0.195705737964E+02   -0.27334E-06   -0.29232E-05    32   0.230E-02
  24 F= -.19570574E+02 E0= -.19570574E+02  d E =-.104514E-02
quench:  g(F)=  0.000E+00 g(S)=  0.000E+00 dE (1.order)= 0.000E+00
 bond charge predicted
       N       E                     dE             d eps       ncg     rms          rms(c)
DAV:   1    -0.195582709221E+02    0.12303E-01   -0.25649E-01    48   0.270E+00    0.123E-01
DAV:   2    -0.195583599161E+02   -0.88994E-04   -0.27774E-03    40   0.259E-01    0.760E-02
DAV:   3    -0.195582358158E+02    0.12410E-03   -0.73840E-04    32   0.114E-01    0.211E-02
DAV:   4    -0.195582328050E+02    0.30108E-05   -0.91846E-05    40   0.367E-02
  25 F= -.19558233E+02 E0= -.19558233E+02  d E =0.123410E-01
quench:  g(F)=  0.000E+00 g(S)=  0.000E+00 dE (1.order)= 0.000E+00
 bond charge predicted
       N       E                     dE             d eps       ncg     rms          rms(c)
DAV:   1    -0.195263152148E+02    0.31921E-01   -0.68021E-01    40   0.458E+00    0.187E-01
DAV:   2    -0.195264846160E+02   -0.16940E-03   -0.69647E-03    40   0.389E-01    0.110E-01
DAV:   3    -0.195263140214E+02    0.17059E-03   -0.50027E-04    40   0.886E-02    0.418E-02
DAV:   4    -0.195262893445E+02    0.24677E-04   -0.12231E-04    32   0.510E-02    0.123E-02
DAV:   5    -0.195263043072E+02   -0.14963E-04   -0.18065E-05    32   0.190E-02    0.566E-03
DAV:   6    -0.195263223634E+02   -0.18056E-04   -0.45369E-06    32   0.112E-02    0.158E-03
DAV:   7    -0.195263386349E+02   -0.16272E-04   -0.13529E-06    32   0.441E-03    0.808E-04
DAV:   8    -0.195263559170E+02   -0.17282E-04   -0.18519E-06    32   0.471E-03    0.593E-04
DAV:   9    -0.195263733660E+02   -0.17449E-04   -0.31270E-06    32   0.565E-03    0.455E-04
DAV:  10    -0.195263760473E+02   -0.26813E-05   -0.20086E-07    48   0.159E-03
  26 F= -.19526376E+02 E0= -.19526376E+02  d E =0.318568E-01
quench:  g(F)=  0.000E+00 g(S)=  0.000E+00 dE (1.order)= 0.000E+00
 bond charge predicted
       N       E                     dE             d eps       ncg     rms          rms(c)
DAV:   1    -0.194235572093E+02    0.10282E+00   -0.56230E+00    40   0.134E+01    0.540E-01
DAV:   2    -0.194238865273E+02   -0.32932E-03   -0.53400E-02    40   0.991E-01    0.306E-01
DAV:   3    -0.194232210561E+02    0.66547E-03   -0.47855E-03    48   0.237E-01    0.152E-01
DAV:   4    -0.194228827544E+02    0.33830E-03   -0.14721E-03    40   0.156E-01    0.279E-02
DAV:   5    -0.194229164663E+02   -0.33712E-04   -0.70630E-05    32   0.387E-02    0.145E-02
DAV:   6    -0.194229705242E+02   -0.54058E-04   -0.29348E-05    32   0.274E-02    0.380E-03
DAV:   7    -0.194230022724E+02   -0.31748E-04   -0.41298E-06    48   0.835E-03    0.246E-03
DAV:   8    -0.194230728468E+02   -0.70574E-04   -0.17505E-05    32   0.152E-02    0.120E-03
DAV:   9    -0.194231087856E+02   -0.35939E-04   -0.65345E-06    32   0.810E-03    0.827E-04
DAV:  10    -0.194231316654E+02   -0.22880E-04   -0.38413E-06    32   0.606E-03    0.479E-04
DAV:  11    -0.194231417160E+02   -0.10051E-04   -0.43156E-07    32   0.247E-03    0.223E-04
DAV:  12    -0.194231475896E+02   -0.58736E-05   -0.17884E-07    32   0.207E-03
  27 F= -.19423148E+02 E0= -.19423148E+02  d E =0.103228E+00
quench:  g(F)=  0.000E+00 g(S)=  0.000E+00 dE (1.order)= 0.000E+00
 bond charge predicted
       N       E                     dE             d eps       ncg     rms          rms(c)
DAV:   1    -0.194683746566E+02   -0.45233E-01   -0.26600E+00    32   0.904E+00    0.388E-01
DAV:   2    -0.194692081569E+02   -0.83350E-03   -0.21959E-02    56   0.745E-01    0.247E-01
DAV:   3    -0.194683985629E+02    0.80959E-03   -0.43138E-03    32   0.258E-01    0.550E-02
DAV:   4    -0.194683511274E+02    0.47436E-04   -0.54922E-04    32   0.912E-02    0.256E-02
DAV:   5    -0.194683615289E+02   -0.10401E-04   -0.48463E-05    32   0.295E-02    0.120E-02
DAV:   6    -0.194683868958E+02   -0.25367E-04   -0.20182E-05    32   0.210E-02    0.307E-03
DAV:   7    -0.194684020372E+02   -0.15141E-04   -0.31519E-06    40   0.722E-03    0.211E-03
DAV:   8    -0.194684209088E+02   -0.18872E-04   -0.19464E-06    32   0.496E-03    0.980E-04
DAV:   9    -0.194684403574E+02   -0.19449E-04   -0.25254E-06    32   0.531E-03    0.749E-04
DAV:  10    -0.194684550834E+02   -0.14726E-04   -0.25130E-06    32   0.525E-03    0.389E-04
DAV:  11    -0.194684606048E+02   -0.55214E-05   -0.30910E-07    32   0.214E-03
  28 F= -.19468461E+02 E0= -.19468461E+02  d E =-.453130E-01
quench:  g(F)=  0.000E+00 g(S)=  0.000E+00 dE (1.order)= 0.000E+00
 bond charge predicted
       N       E                     dE             d eps       ncg     rms          rms(c)
DAV:   1    -0.194875137037E+02   -0.19059E-01   -0.19697E-01    32   0.249E+00    0.167E-01
DAV:   2    -0.194872278602E+02    0.28584E-03   -0.49977E-03    32   0.298E-01    0.859E-02
DAV:   3    -0.194871529256E+02    0.74935E-04   -0.35895E-04    56   0.790E-02    0.403E-02
DAV:   4    -0.194871407680E+02    0.12158E-04   -0.96980E-05    32   0.421E-02    0.924E-03
DAV:   5    -0.194871453345E+02   -0.45665E-05   -0.13533E-05    32   0.153E-02
  29 F= -.19487145E+02 E0= -.19487145E+02  d E =-.186847E-01
quench:  g(F)=  0.000E+00 g(S)=  0.000E+00 dE (1.order)= 0.000E+00
 bond charge predicted
       N       E                     dE             d eps       ncg     rms          rms(c)
DAV:   1    -0.194926568062E+02   -0.55160E-02   -0.19364E-02    32   0.799E-01    0.378E-02
DAV:   2    -0.194926511517E+02    0.56545E-05   -0.22459E-04    32   0.779E-02    0.203E-02
DAV:   3    -0.194926485083E+02    0.26434E-05   -0.40240E-05    32   0.292E-02
  30 F= -.19492649E+02 E0= -.19492649E+02  d E =-.550317E-02
quench:  g(F)=  0.000E+00 g(S)=  0.000E+00 dE (1.order)= 0.000E+00
 bond charge predicted
       N       E                     dE             d eps       ncg     rms          rms(c)
DAV:   1    -0.194930722382E+02   -0.42109E-03   -0.85939E-03    32   0.495E-01    0.214E-02
DAV:   2    -0.194930789075E+02   -0.66693E-05   -0.91970E-05    40   0.470E-02
  31 F= -.19493079E+02 E0= -.19493079E+02  d E =-.430399E-03
quench:  g(F)=  0.000E+00 g(S)=  0.000E+00 dE (1.order)= 0.000E+00
 bond charge predicted
       N       E                     dE             d eps       ncg     rms          rms(c)
DAV:   1    -0.194833856600E+02    0.96866E-02   -0.77528E-02    48   0.153E+00    0.782E-02
DAV:   2    -0.194833519480E+02    0.33712E-04   -0.15600E-03    32   0.158E-01    0.420E-02
DAV:   3    -0.194833355266E+02    0.16421E-04   -0.10803E-04    32   0.429E-02    0.224E-02
DAV:   4    -0.194833258696E+02    0.96569E-05   -0.37384E-05    32   0.318E-02
  32 F= -.19483326E+02 E0= -.19483326E+02  d E =0.975304E-02
quench:  g(F)=  0.000E+00 g(S)=  0.000E+00 dE (1.order)= 0.000E+00
 bond charge predicted
       N       E                     dE             d eps       ncg     rms          rms(c)
DAV:   1    -0.195156410204E+02   -0.32305E-01   -0.24722E+00    32   0.887E+00    0.397E-01
DAV:   2    -0.195152804022E+02    0.36062E-03   -0.19943E-02    56   0.681E-01    0.240E-01
DAV:   3    -0.195146312381E+02    0.64916E-03   -0.30983E-03    32   0.210E-01    0.786E-02
DAV:   4    -0.195145502869E+02    0.80951E-04   -0.68099E-04    48   0.106E-01    0.216E-02
DAV:   5    -0.195145496263E+02    0.66068E-06   -0.79804E-05    32   0.389E-02
  33 F= -.19514550E+02 E0= -.19514550E+02  d E =-.312238E-01
quench:  g(F)=  0.000E+00 g(S)=  0.000E+00 dE (1.order)= 0.000E+00
 bond charge predicted
       N       E                     dE             d eps       ncg     rms          rms(c)
DAV:   1    -0.195192316966E+02   -0.46814E-02   -0.93251E-01    32   0.528E+00    0.337E-01
DAV:   2    -0.195177400096E+02    0.14917E-02   -0.20881E-02    40   0.592E-01    0.187E-01
DAV:   3    -0.195173495473E+02    0.39046E-03   -0.22069E-03    32   0.178E-01    0.915E-02
DAV:   4    -0.195172516598E+02    0.97888E-04   -0.69523E-04    32   0.124E-01    0.180E-02
DAV:   5    -0.195172618835E+02   -0.10224E-04   -0.76460E-05    32   0.408E-02    0.715E-03
DAV:   6    -0.195172736916E+02   -0.11808E-04   -0.79732E-06    32   0.118E-02    0.239E-03
DAV:   7    -0.195172803321E+02   -0.66405E-05   -0.71181E-07    32   0.355E-03
  34 F= -.19517280E+02 E0= -.19517280E+02  d E =-.273071E-02
quench:  g(F)=  0.000E+00 g(S)=  0.000E+00 dE (1.order)= 0.000E+00
 bond charge predicted
       N       E                     dE             d eps       ncg     rms          rms(c)
DAV:   1    -0.194514374080E+02    0.65836E-01   -0.22670E+00    40   0.844E+00    0.418E-01
DAV:   2    -0.194498251924E+02    0.16122E-02   -0.47855E-02    40   0.825E-01    0.222E-01
DAV:   3    -0.194493275154E+02    0.49768E-03   -0.42330E-03    32   0.228E-01    0.117E-01
DAV:   4    -0.194491336253E+02    0.19389E-03   -0.10244E-03    32   0.157E-01    0.244E-02
DAV:   5    -0.194491438654E+02   -0.10240E-04   -0.11311E-04    32   0.506E-02    0.112E-02
DAV:   6    -0.194491675171E+02   -0.23652E-04   -0.17974E-05    32   0.222E-02    0.272E-03
DAV:   7    -0.194491814926E+02   -0.13975E-04   -0.17131E-06    32   0.613E-03    0.157E-03
DAV:   8    -0.194492067590E+02   -0.25266E-04   -0.49889E-06    32   0.781E-03    0.853E-04
DAV:   9    -0.194492224585E+02   -0.15700E-04   -0.25881E-06    32   0.503E-03    0.516E-04
DAV:  10    -0.194492302147E+02   -0.77562E-05   -0.23286E-06    32   0.477E-03
  35 F= -.19449230E+02 E0= -.19449230E+02  d E =0.680501E-01
quench:  g(F)=  0.000E+00 g(S)=  0.000E+00 dE (1.order)= 0.000E+00
 bond charge predicted
       N       E                     dE             d eps       ncg     rms          rms(c)
DAV:   1    -0.194954284043E+02   -0.46206E-01   -0.13522E+00    40   0.639E+00    0.273E-01
DAV:   2    -0.194953325046E+02    0.95900E-04   -0.15816E-02    40   0.553E-01    0.153E-01
DAV:   3    -0.194951323194E+02    0.20019E-03   -0.10372E-03    40   0.120E-01    0.761E-02
DAV:   4    -0.194950254859E+02    0.10683E-03   -0.36389E-04    32   0.908E-02    0.158E-02
DAV:   5    -0.194950347989E+02   -0.93129E-05   -0.30204E-05    32   0.277E-02
  36 F= -.19495035E+02 E0= -.19495035E+02  d E =-.458046E-01
quench:  g(F)=  0.000E+00 g(S)=  0.000E+00 dE (1.order)= 0.000E+00
 bond charge predicted
       N       E                     dE             d eps       ncg     rms          rms(c)
DAV:   1    -0.195606994503E+02   -0.65674E-01   -0.55586E+00    48   0.132E+01    0.911E-01
DAV:   2    -0.195433390697E+02    0.17360E-01   -0.21992E-01    40   0.164E+00    0.421E-01
DAV:   3    -0.195404461680E+02    0.28929E-02   -0.16555E-02    64   0.498E-01    0.213E-01
DAV:   4    -0.195396809026E+02    0.76527E-03   -0.47918E-03    40   0.344E-01    0.474E-02
DAV:   5    -0.195397955401E+02   -0.11464E-03   -0.52517E-04    32   0.110E-01    0.207E-02
DAV:   6    -0.195399612625E+02   -0.16572E-03   -0.42448E-05    32   0.338E-02    0.551E-03
DAV:   7    -0.195400952409E+02   -0.13398E-03   -0.89766E-06    32   0.118E-02    0.350E-03
DAV:   8    -0.195403003015E+02   -0.20506E-03   -0.22518E-05    32   0.163E-02    0.183E-03
DAV:   9    -0.195404519177E+02   -0.15162E-03   -0.17887E-05    32   0.151E-02    0.232E-03
DAV:  10    -0.195404995970E+02   -0.47679E-04   -0.43673E-06    32   0.814E-03    0.832E-04
DAV:  11    -0.195405259603E+02   -0.26363E-04   -0.15555E-06    32   0.660E-03    0.700E-04
DAV:  12    -0.195405339354E+02   -0.79751E-05   -0.38287E-07    48   0.318E-03
  37 F= -.19540534E+02 E0= -.19540534E+02  d E =-.454991E-01
quench:  g(F)=  0.000E+00 g(S)=  0.000E+00 dE (1.order)= 0.000E+00
 bond charge predicted
       N       E                     dE             d eps       ncg     rms          rms(c)
DAV:   1    -0.195631005166E+02   -0.22575E-01   -0.24418E+00    48   0.866E+00    0.715E-01
DAV:   2    -0.195512204977E+02    0.11880E-01   -0.13256E-01    40   0.123E+00    0.346E-01
DAV:   3    -0.195492629800E+02    0.19575E-02   -0.14122E-02    40   0.434E-01    0.160E-01
DAV:   4    -0.195489201442E+02    0.34284E-03   -0.27950E-03    40   0.256E-01    0.394E-02
DAV:   5    -0.195489374819E+02   -0.17338E-04   -0.25641E-04    32   0.754E-02    0.151E-02
DAV:   6    -0.195489710165E+02   -0.33535E-04   -0.25824E-05    32   0.226E-02    0.406E-03
DAV:   7    -0.195489919918E+02   -0.20975E-04   -0.33566E-06    32   0.797E-03    0.233E-03
DAV:   8    -0.195490186818E+02   -0.26690E-04   -0.46623E-06    32   0.815E-03    0.121E-03
DAV:   9    -0.195490408693E+02   -0.22187E-04   -0.66090E-06    32   0.901E-03    0.236E-03
DAV:  10    -0.195490471035E+02   -0.62343E-05   -0.16015E-06    32   0.443E-03
  38 F= -.19549047E+02 E0= -.19549047E+02  d E =-.851317E-02
quench:  g(F)=  0.000E+00 g(S)=  0.000E+00 dE (1.order)= 0.000E+00
 bond charge predicted
       N       E                     dE             d eps       ncg     rms          rms(c)
DAV:   1    -0.195281102883E+02    0.20931E-01   -0.32402E-01    32   0.324E+00    0.136E-01
DAV:   2    -0.195281483637E+02   -0.38075E-04   -0.26233E-03    56   0.258E-01    0.846E-02
DAV:   3    -0.195280395698E+02    0.10879E-03   -0.91534E-04    32   0.116E-01    0.312E-02
DAV:   4    -0.195280239767E+02    0.15593E-04   -0.13136E-04    32   0.433E-02    0.133E-02
DAV:   5    -0.195280232925E+02    0.68422E-06   -0.31640E-05    32   0.226E-02
  39 F= -.19528023E+02 E0= -.19528023E+02  d E =0.210238E-01
quench:  g(F)=  0.000E+00 g(S)=  0.000E+00 dE (1.order)= 0.000E+00
 bond charge predicted
       N       E                     dE             d eps       ncg     rms          rms(c)
DAV:   1    -0.194917925736E+02    0.36231E-01   -0.60021E-01    48   0.447E+00    0.187E-01
DAV:   2    -0.194919830432E+02   -0.19047E-03   -0.61879E-03    32   0.405E-01    0.102E-01
DAV:   3    -0.194917894337E+02    0.19361E-03   -0.72952E-04    48   0.131E-01    0.291E-02
DAV:   4    -0.194917924784E+02   -0.30447E-05   -0.30319E-05    48   0.316E-02
  40 F= -.19491792E+02 E0= -.19491792E+02  d E =0.362308E-01
quench:  g(F)=  0.000E+00 g(S)=  0.000E+00 dE (1.order)= 0.000E+00
 bond charge predicted
       N       E                     dE             d eps       ncg     rms          rms(c)
DAV:   1    -0.194502675157E+02    0.41522E-01   -0.49065E+00    40   0.118E+01    0.504E-01
DAV:   2    -0.194523121690E+02   -0.20447E-02   -0.50858E-02    40   0.113E+00    0.306E-01
DAV:   3    -0.194513286050E+02    0.98356E-03   -0.50505E-03    48   0.262E-01    0.103E-01
DAV:   4    -0.194511709404E+02    0.15766E-03   -0.11263E-03    32   0.138E-01    0.334E-02
DAV:   5    -0.194511848829E+02   -0.13943E-04   -0.81837E-05    32   0.452E-02    0.178E-02
DAV:   6    -0.194512291042E+02   -0.44221E-04   -0.28809E-05    32   0.289E-02    0.347E-03
DAV:   7    -0.194512613388E+02   -0.32235E-04   -0.50786E-06    48   0.899E-03    0.192E-03
DAV:   8    -0.194513321800E+02   -0.70841E-04   -0.11893E-05    32   0.117E-02    0.109E-03
DAV:   9    -0.194513742189E+02   -0.42039E-04   -0.69325E-06    40   0.839E-03    0.809E-04
DAV:  10    -0.194514012175E+02   -0.26999E-04   -0.35253E-06    32   0.608E-03    0.374E-04
DAV:  11    -0.194514107977E+02   -0.95802E-05   -0.21868E-07    40   0.226E-03
  41 F= -.19451411E+02 E0= -.19451411E+02  d E =0.403817E-01
quench:  g(F)=  0.000E+00 g(S)=  0.000E+00 dE (1.order)= 0.000E+00
 bond charge predicted
       N       E                     dE             d eps       ncg     rms          rms(c)
DAV:   1    -0.194798756090E+02   -0.28474E-01   -0.46661E-01    32   0.394E+00    0.196E-01
DAV:   2    -0.194797452685E+02    0.13034E-03   -0.59375E-03    56   0.395E-01    0.110E-01
DAV:   3    -0.194795484461E+02    0.19682E-03   -0.15151E-03    32   0.150E-01    0.439E-02
DAV:   4    -0.194795320048E+02    0.16441E-04   -0.26354E-04    32   0.619E-02    0.169E-02
DAV:   5    -0.194795314956E+02    0.50922E-06   -0.22797E-05    32   0.211E-02
  42 F= -.19479531E+02 E0= -.19479531E+02  d E =-.281207E-01
quench:  g(F)=  0.000E+00 g(S)=  0.000E+00 dE (1.order)= 0.000E+00
 bond charge predicted
       N       E                     dE             d eps       ncg     rms          rms(c)
DAV:   1    -0.195166729008E+02   -0.37141E-01   -0.26200E+00    48   0.880E+00    0.435E-01
DAV:   2    -0.195154473435E+02    0.12256E-02   -0.49076E-02    40   0.920E-01    0.244E-01
DAV:   3    -0.195147499253E+02    0.69742E-03   -0.32359E-03    48   0.228E-01    0.128E-01
DAV:   4    -0.195145184384E+02    0.23149E-03   -0.14342E-03    32   0.178E-01    0.284E-02
DAV:   5    -0.195145499079E+02   -0.31470E-04   -0.17080E-04    32   0.656E-02    0.132E-02
DAV:   6    -0.195145911816E+02   -0.41274E-04   -0.18962E-05    32   0.228E-02    0.305E-03
DAV:   7    -0.195146157785E+02   -0.24597E-04   -0.16644E-06    32   0.544E-03    0.162E-03
DAV:   8    -0.195146527029E+02   -0.36924E-04   -0.35626E-06    32   0.636E-03    0.869E-04
DAV:   9    -0.195146895621E+02   -0.36859E-04   -0.50585E-06    32   0.732E-03    0.563E-04
DAV:  10    -0.195147045997E+02   -0.15038E-04   -0.18763E-06    32   0.474E-03    0.344E-04
DAV:  11    -0.195147131956E+02   -0.85959E-05   -0.35408E-07    32   0.268E-03
  43 F= -.19514713E+02 E0= -.19514713E+02  d E =-.351817E-01
quench:  g(F)=  0.000E+00 g(S)=  0.000E+00 dE (1.order)= 0.000E+00
 bond charge predicted
       N       E                     dE             d eps       ncg     rms          rms(c)
DAV:   1    -0.195104930810E+02    0.42115E-02   -0.52055E+00    32   0.125E+01    0.658E-01
DAV:   2    -0.195082992676E+02    0.21938E-02   -0.10337E-01    40   0.137E+00    0.382E-01
DAV:   3    -0.195062603138E+02    0.20390E-02   -0.11363E-02    48   0.379E-01    0.187E-01
DAV:   4    -0.195057616554E+02    0.49866E-03   -0.35464E-03    32   0.260E-01    0.453E-02
DAV:   5    -0.195057584932E+02    0.31622E-05   -0.22068E-04    48   0.744E-02    0.237E-02
DAV:   6    -0.195057872310E+02   -0.28738E-04   -0.57634E-05    32   0.401E-02    0.610E-03
DAV:   7    -0.195058192078E+02   -0.31977E-04   -0.50760E-06    48   0.983E-03    0.331E-03
DAV:   8    -0.195059175425E+02   -0.98335E-04   -0.28890E-05    32   0.196E-02    0.294E-03
DAV:   9    -0.195059551158E+02   -0.37573E-04   -0.50351E-06    32   0.734E-03    0.116E-03
DAV:  10    -0.195059890854E+02   -0.33970E-04   -0.75755E-06    32   0.892E-03    0.940E-04
DAV:  11    -0.195060053534E+02   -0.16268E-04   -0.91265E-07    48   0.354E-03    0.537E-04
DAV:  12    -0.195060142517E+02   -0.88983E-05   -0.17759E-07    32   0.230E-03
  44 F= -.19506014E+02 E0= -.19506014E+02  d E =0.869894E-02
quench:  g(F)=  0.000E+00 g(S)=  0.000E+00 dE (1.order)= 0.000E+00
 bond charge predicted
       N       E                     dE             d eps       ncg     rms          rms(c)
DAV:   1    -0.194758224630E+02    0.30183E-01   -0.37387E+00    32   0.103E+01    0.487E-01
DAV:   2    -0.194760499443E+02   -0.22748E-03   -0.41705E-02    40   0.101E+00    0.298E-01
DAV:   3    -0.194744971037E+02    0.15528E-02   -0.90644E-03    40   0.402E-01    0.593E-02
DAV:   4    -0.194744688136E+02    0.28290E-04   -0.53585E-04    32   0.106E-01    0.337E-02
DAV:   5    -0.194744805538E+02   -0.11740E-04   -0.94613E-05    32   0.400E-02    0.145E-02
DAV:   6    -0.194745107165E+02   -0.30163E-04   -0.18053E-05    32   0.212E-02    0.375E-03
DAV:   7    -0.194745558596E+02   -0.45143E-04   -0.63881E-06    32   0.984E-03    0.213E-03
DAV:   8    -0.194746003539E+02   -0.44494E-04   -0.48310E-06    48   0.755E-03    0.105E-03
DAV:   9    -0.194746383611E+02   -0.38007E-04   -0.44945E-06    32   0.698E-03    0.568E-04
DAV:  10    -0.194746629452E+02   -0.24584E-04   -0.35221E-06    32   0.618E-03    0.440E-04
DAV:  11    -0.194746757100E+02   -0.12765E-04   -0.45931E-07    32   0.275E-03    0.197E-04
DAV:  12    -0.194746805931E+02   -0.48830E-05   -0.17385E-07    32   0.233E-03
  45 F= -.19474681E+02 E0= -.19474681E+02  d E =0.313337E-01
quench:  g(F)=  0.000E+00 g(S)=  0.000E+00 dE (1.order)= 0.000E+00
 bond charge predicted
       N       E                     dE             d eps       ncg     rms          rms(c)
DAV:   1    -0.194527834539E+02    0.21892E-01   -0.35401E+00    32   0.105E+01    0.731E-01
DAV:   2    -0.194440290659E+02    0.87544E-02   -0.10461E-01    48   0.131E+00    0.402E-01
DAV:   3    -0.194411177847E+02    0.29113E-02   -0.20913E-02    48   0.489E-01    0.183E-01
DAV:   4    -0.194406719644E+02    0.44582E-03   -0.40814E-03    32   0.288E-01    0.477E-02
DAV:   5    -0.194406666333E+02    0.53311E-05   -0.19442E-04    32   0.731E-02    0.222E-02
DAV:   6    -0.194406760774E+02   -0.94442E-05   -0.43161E-05    32   0.298E-02
  46 F= -.19440676E+02 E0= -.19440676E+02  d E =0.340045E-01
quench:  g(F)=  0.000E+00 g(S)=  0.000E+00 dE (1.order)= 0.000E+00
 bond charge predicted
       N       E                     dE             d eps       ncg     rms          rms(c)
DAV:   1    -0.195048586790E+02   -0.64192E-01   -0.57367E+00    32   0.133E+01    0.996E-01
DAV:   2    -0.194843247283E+02    0.20534E-01   -0.19722E-01    48   0.180E+00    0.524E-01
DAV:   3    -0.194789876980E+02    0.53370E-02   -0.26855E-02    56   0.624E-01    0.234E-01
DAV:   4    -0.194779747089E+02    0.10130E-02   -0.70768E-03    48   0.393E-01    0.605E-02
DAV:   5    -0.194780367392E+02   -0.62030E-04   -0.56270E-04    32   0.113E-01    0.277E-02
DAV:   6    -0.194780967073E+02   -0.59968E-04   -0.39825E-05    32   0.332E-02    0.440E-03
DAV:   7    -0.194781294641E+02   -0.32757E-04   -0.34922E-06    40   0.852E-03    0.291E-03
DAV:   8    -0.194781795293E+02   -0.50065E-04   -0.57149E-06    32   0.931E-03    0.140E-03
DAV:   9    -0.194781989148E+02   -0.19385E-04   -0.13223E-06    48   0.439E-03    0.103E-03
DAV:  10    -0.194782257169E+02   -0.26802E-04   -0.29793E-06    32   0.632E-03    0.410E-04
DAV:  11    -0.194782335046E+02   -0.77878E-05   -0.46682E-07    32   0.304E-03
  47 F= -.19478234E+02 E0= -.19478234E+02  d E =-.375574E-01
quench:  g(F)=  0.000E+00 g(S)=  0.000E+00 dE (1.order)= 0.000E+00
 bond charge predicted
       N       E                     dE             d eps       ncg     rms          rms(c)
DAV:   1    -0.194971873528E+02   -0.18962E-01   -0.35836E-01    32   0.334E+00    0.266E-01
DAV:   2    -0.194956474169E+02    0.15399E-02   -0.15317E-02    40   0.470E-01    0.138E-01
DAV:   3    -0.194952971650E+02    0.35025E-03   -0.20564E-03    32   0.169E-01    0.629E-02
DAV:   4    -0.194952383490E+02    0.58816E-04   -0.62109E-04    32   0.119E-01    0.192E-02
DAV:   5    -0.194952372487E+02    0.11003E-05   -0.80763E-05    32   0.392E-02
  48 F= -.19495237E+02 E0= -.19495237E+02  d E =-.170037E-01
quench:  g(F)=  0.000E+00 g(S)=  0.000E+00 dE (1.order)= 0.000E+00
 bond charge predicted
       N       E                     dE             d eps       ncg     rms          rms(c)
DAV:   1    -0.194935086638E+02    0.17297E-02   -0.27757E-01    32   0.293E+00    0.236E-01
DAV:   2    -0.194923598659E+02    0.11488E-02   -0.13256E-02    40   0.423E-01    0.127E-01
DAV:   3    -0.194920770409E+02    0.28283E-03   -0.18056E-03    32   0.153E-01    0.579E-02
DAV:   4    -0.194920371033E+02    0.39938E-04   -0.44778E-04    32   0.101E-01    0.136E-02
DAV:   5    -0.194920401433E+02   -0.30401E-05   -0.27224E-05    32   0.270E-02
  49 F= -.19492040E+02 E0= -.19492040E+02  d E =0.319711E-02
quench:  g(F)=  0.000E+00 g(S)=  0.000E+00 dE (1.order)= 0.000E+00
 bond charge predicted
       N       E                     dE             d eps       ncg     rms          rms(c)
DAV:   1    -0.194962861413E+02   -0.42490E-02   -0.46312E-02    32   0.119E+00    0.855E-02
DAV:   2    -0.194961869855E+02    0.99156E-04   -0.17174E-03    40   0.162E-01    0.491E-02
DAV:   3    -0.194961336626E+02    0.53323E-04   -0.27038E-04    56   0.575E-02    0.223E-02
DAV:   4    -0.194961240868E+02    0.95758E-05   -0.80011E-05    32   0.418E-02
  50 F= -.19496124E+02 E0= -.19496124E+02  d E =-.408394E-02
quench:  g(F)=  0.000E+00 g(S)=  0.000E+00 dE (1.order)= 0.000E+00
 bond charge predicted
       N       E                     dE             d eps       ncg     rms          rms(c)
DAV:   1    -0.194971555154E+02   -0.10219E-02   -0.48172E-02    32   0.121E+00    0.890E-02
DAV:   2    -0.194970023664E+02    0.15315E-03   -0.15266E-03    40   0.159E-01    0.484E-02
DAV:   3    -0.194969554330E+02    0.46933E-04   -0.25833E-04    48   0.592E-02    0.217E-02
DAV:   4    -0.194969504908E+02    0.49422E-05   -0.60201E-05    32   0.357E-02
  51 F= -.19496950E+02 E0= -.19496950E+02  d E =-.826404E-03
quench:  g(F)=  0.000E+00 g(S)=  0.000E+00 dE (1.order)= 0.000E+00
 bond charge predicted
       N       E                     dE             d eps       ncg     rms          rms(c)
DAV:   1    -0.194961931387E+02    0.76229E-03   -0.22265E-03    32   0.263E-01    0.200E-02
DAV:   2    -0.194961869332E+02    0.62055E-05   -0.76671E-05    32   0.342E-02
  52 F= -.19496187E+02 E0= -.19496187E+02  d E =0.763558E-03
quench:  g(F)=  0.000E+00 g(S)=  0.000E+00 dE (1.order)= 0.000E+00
 bond charge predicted
       N       E                     dE             d eps       ncg     rms          rms(c)
DAV:   1    -0.194960283838E+02    0.16475E-03   -0.10621E-03    32   0.178E-01    0.958E-03
DAV:   2    -0.194960286970E+02   -0.31329E-06   -0.34544E-05    32   0.235E-02
  53 F= -.19496029E+02 E0= -.19496029E+02  d E =0.158236E-03
quench:  g(F)=  0.000E+00 g(S)=  0.000E+00 dE (1.order)= 0.000E+00
 bond charge predicted
       N       E                     dE             d eps       ncg     rms          rms(c)
DAV:   1    -0.194953304082E+02    0.69798E-03   -0.39801E-03    32   0.343E-01    0.200E-02
DAV:   2    -0.194953283419E+02    0.20663E-05   -0.80426E-05    32   0.386E-02
  54 F= -.19495328E+02 E0= -.19495328E+02  d E =0.700355E-03
quench:  g(F)=  0.000E+00 g(S)=  0.000E+00 dE (1.order)= 0.000E+00
 bond charge predicted
       N       E                     dE             d eps       ncg     rms          rms(c)
DAV:   1    -0.194948005755E+02    0.52983E-03   -0.42821E-03    32   0.352E-01    0.199E-02
DAV:   2    -0.194948007592E+02   -0.18369E-06   -0.44079E-05    32   0.328E-02
  55 F= -.19494801E+02 E0= -.19494801E+02  d E =0.527583E-03
quench:  g(F)=  0.000E+00 g(S)=  0.000E+00 dE (1.order)= 0.000E+00
 bond charge predicted
       N       E                     dE             d eps       ncg     rms          rms(c)
DAV:   1    -0.194957370140E+02   -0.93644E-03   -0.19266E-02    32   0.755E-01    0.320E-02
DAV:   2    -0.194957489715E+02   -0.11957E-04   -0.18955E-04    40   0.693E-02    0.202E-02
DAV:   3    -0.194957417146E+02    0.72569E-05   -0.27676E-05    32   0.248E-02
  56 F= -.19495742E+02 E0= -.19495742E+02  d E =-.940955E-03
quench:  g(F)=  0.000E+00 g(S)=  0.000E+00 dE (1.order)= 0.000E+00
 bond charge predicted
       N       E                     dE             d eps       ncg     rms          rms(c)
DAV:   1    -0.195024326459E+02   -0.66837E-02   -0.43681E-02    48   0.116E+00    0.799E-02
DAV:   2    -0.195023200054E+02    0.11264E-03   -0.17509E-03    32   0.146E-01    0.386E-02
DAV:   3    -0.195023037725E+02    0.16233E-04   -0.14026E-04    32   0.470E-02    0.208E-02
DAV:   4    -0.195022987749E+02    0.49976E-05   -0.29882E-05    32   0.293E-02
  57 F= -.19502299E+02 E0= -.19502299E+02  d E =-.655706E-02
quench:  g(F)=  0.000E+00 g(S)=  0.000E+00 dE (1.order)= 0.000E+00
 bond charge predicted
       N       E                     dE             d eps       ncg     rms          rms(c)
DAV:   1    -0.195104166442E+02   -0.81129E-02   -0.46201E-01    32   0.383E+00    0.255E-01
DAV:   2    -0.195094153258E+02    0.10013E-02   -0.11995E-02    40   0.469E-01    0.140E-01
DAV:   3    -0.195090458658E+02    0.36946E-03   -0.22596E-03    40   0.169E-01    0.629E-02
DAV:   4    -0.195089932095E+02    0.52656E-04   -0.49216E-04    32   0.992E-02    0.167E-02
DAV:   5    -0.195089941173E+02   -0.90775E-06   -0.26152E-05    32   0.259E-02
  58 F= -.19508994E+02 E0= -.19508994E+02  d E =-.669534E-02
quench:  g(F)=  0.000E+00 g(S)=  0.000E+00 dE (1.order)= 0.000E+00
 bond charge predicted
       N       E                     dE             d eps       ncg     rms          rms(c)
DAV:   1    -0.195324978658E+02   -0.23505E-01   -0.69185E-01    48   0.461E+00    0.363E-01
DAV:   2    -0.195294339791E+02    0.30639E-02   -0.32941E-02    40   0.647E-01    0.182E-01
DAV:   3    -0.195288318980E+02    0.60208E-03   -0.35358E-03    56   0.222E-01    0.855E-02
DAV:   4    -0.195287078910E+02    0.12401E-03   -0.10124E-03    32   0.150E-01    0.208E-02
DAV:   5    -0.195287246994E+02   -0.16808E-04   -0.88459E-05    32   0.454E-02    0.943E-03
DAV:   6    -0.195287435520E+02   -0.18853E-04   -0.68087E-06    32   0.127E-02    0.175E-03
DAV:   7    -0.195287538848E+02   -0.10333E-04   -0.68377E-07    32   0.363E-03    0.120E-03
DAV:   8    -0.195287699457E+02   -0.16061E-04   -0.13862E-06    32   0.423E-03    0.625E-04
DAV:   9    -0.195287776557E+02   -0.77100E-05   -0.41919E-07    32   0.240E-03
  59 F= -.19528778E+02 E0= -.19528778E+02  d E =-.197835E-01
quench:  g(F)=  0.000E+00 g(S)=  0.000E+00 dE (1.order)= 0.000E+00
 bond charge predicted
       N       E                     dE             d eps       ncg     rms          rms(c)
DAV:   1    -0.195382900348E+02   -0.95201E-02   -0.79499E-01    32   0.499E+00    0.368E-01
DAV:   2    -0.195357727173E+02    0.25173E-02   -0.28259E-02    40   0.650E-01    0.198E-01
DAV:   3    -0.195351047701E+02    0.66795E-03   -0.41827E-03    48   0.234E-01    0.900E-02
DAV:   4    -0.195349957872E+02    0.10898E-03   -0.10483E-03    32   0.156E-01    0.240E-02
DAV:   5    -0.195349943274E+02    0.14598E-05   -0.92534E-05    32   0.454E-02
  60 F= -.19534994E+02 E0= -.19534994E+02  d E =-.621667E-02
quench:  g(F)=  0.000E+00 g(S)=  0.000E+00 dE (1.order)= 0.000E+00
 bond charge predicted
       N       E                     dE             d eps       ncg     rms          rms(c)
DAV:   1    -0.195481054814E+02   -0.13110E-01   -0.12074E+00    32   0.612E+00    0.459E-01
DAV:   2    -0.195434171819E+02    0.46883E-02   -0.45562E-02    40   0.822E-01    0.237E-01
DAV:   3    -0.195423139270E+02    0.11033E-02   -0.57649E-03    48   0.287E-01    0.108E-01
DAV:   4    -0.195420862393E+02    0.22769E-03   -0.15404E-03    32   0.186E-01    0.269E-02
DAV:   5    -0.195421051038E+02   -0.18864E-04   -0.11006E-04    32   0.520E-02    0.126E-02
DAV:   6    -0.195421192619E+02   -0.14158E-04   -0.90108E-06    32   0.161E-02    0.197E-03
DAV:   7    -0.195421260732E+02   -0.68114E-05   -0.68952E-07    32   0.397E-03
  61 F= -.19542126E+02 E0= -.19542126E+02  d E =-.713175E-02
quench:  g(F)=  0.000E+00 g(S)=  0.000E+00 dE (1.order)= 0.000E+00
 bond charge predicted
       N       E                     dE             d eps       ncg     rms          rms(c)
DAV:   1    -0.195468075459E+02   -0.46883E-02   -0.15072E-01    32   0.215E+00    0.179E-01
DAV:   2    -0.195460880204E+02    0.71953E-03   -0.74995E-03    40   0.314E-01    0.902E-02
DAV:   3    -0.195459344474E+02    0.15357E-03   -0.85888E-04    32   0.110E-01    0.418E-02
DAV:   4    -0.195459130280E+02    0.21419E-04   -0.24817E-04    32   0.752E-02    0.110E-02
DAV:   5    -0.195459137814E+02   -0.75339E-06   -0.23551E-05    32   0.226E-02
  62 F= -.19545914E+02 E0= -.19545914E+02  d E =-.378771E-02
quench:  g(F)=  0.000E+00 g(S)=  0.000E+00 dE (1.order)= 0.000E+00
 bond charge predicted
       N       E                     dE             d eps       ncg     rms          rms(c)
DAV:   1    -0.195433219979E+02    0.25910E-02   -0.27312E-02    32   0.917E-01    0.738E-02
DAV:   2    -0.195431964466E+02    0.12555E-03   -0.13778E-03    40   0.131E-01    0.371E-02
DAV:   3    -0.195431691425E+02    0.27304E-04   -0.17195E-04    32   0.481E-02    0.173E-02
DAV:   4    -0.195431658159E+02    0.33267E-05   -0.47430E-05    32   0.328E-02
  63 F= -.19543166E+02 E0= -.19543166E+02  d E =0.274797E-02
quench:  g(F)=  0.000E+00 g(S)=  0.000E+00 dE (1.order)= 0.000E+00
 bond charge predicted
       N       E                     dE             d eps       ncg     rms          rms(c)
DAV:   1    -0.195421067057E+02    0.10624E-02   -0.92547E-04    32   0.170E-01    0.895E-03
DAV:   2    -0.195421065348E+02    0.17089E-06   -0.16765E-05    32   0.167E-02
  64 F= -.19542107E+02 E0= -.19542107E+02  d E =0.105928E-02
quench:  g(F)=  0.000E+00 g(S)=  0.000E+00 dE (1.order)= 0.000E+00
 bond charge predicted
       N       E                     dE             d eps       ncg     rms          rms(c)
DAV:   1    -0.195398471435E+02    0.22596E-02   -0.10010E-02    32   0.535E-01    0.236E-02
DAV:   2    -0.195398521081E+02   -0.49647E-05   -0.86163E-05    40   0.480E-02
  65 F= -.19539852E+02 E0= -.19539852E+02  d E =0.225443E-02
quench:  g(F)=  0.000E+00 g(S)=  0.000E+00 dE (1.order)= 0.000E+00
 bond charge predicted
       N       E                     dE             d eps       ncg     rms          rms(c)
DAV:   1    -0.195288763213E+02    0.10971E-01   -0.14758E-01    32   0.209E+00    0.893E-02
DAV:   2    -0.195289058780E+02   -0.29557E-04   -0.11523E-03    40   0.178E-01    0.530E-02
DAV:   3    -0.195288613951E+02    0.44483E-04   -0.19941E-04    32   0.614E-02    0.971E-03
DAV:   4    -0.195288612342E+02    0.16088E-06   -0.11471E-05    48   0.169E-02
  66 F= -.19528861E+02 E0= -.19528861E+02  d E =0.109909E-01
quench:  g(F)=  0.000E+00 g(S)=  0.000E+00 dE (1.order)= 0.000E+00
 bond charge predicted
       N       E                     dE             d eps       ncg     rms          rms(c)
DAV:   1    -0.194835978545E+02    0.45264E-01   -0.18447E+00    40   0.747E+00    0.304E-01
DAV:   2    -0.194839155582E+02   -0.31770E-03   -0.13751E-02    40   0.585E-01    0.176E-01
DAV:   3    -0.194835654531E+02    0.35011E-03   -0.12795E-03    40   0.133E-01    0.553E-02
DAV:   4    -0.194835021465E+02    0.63307E-04   -0.27152E-04    32   0.657E-02    0.173E-02
DAV:   5    -0.194835113929E+02   -0.92464E-05   -0.23118E-05    32   0.220E-02
  67 F= -.19483511E+02 E0= -.19483511E+02  d E =0.453498E-01
quench:  g(F)=  0.000E+00 g(S)=  0.000E+00 dE (1.order)= 0.000E+00
 bond charge predicted
       N       E                     dE             d eps       ncg     rms          rms(c)
DAV:   1    -0.194336758061E+02    0.49826E-01   -0.24007E+00    40   0.840E+00    0.376E-01
DAV:   2    -0.194337454186E+02   -0.69613E-04   -0.27014E-02    40   0.762E-01    0.211E-01
DAV:   3    -0.194333226879E+02    0.42273E-03   -0.21186E-03    40   0.164E-01    0.983E-02
DAV:   4    -0.194331289430E+02    0.19374E-03   -0.61568E-04    32   0.112E-01    0.215E-02
DAV:   5    -0.194331627697E+02   -0.33827E-04   -0.51193E-05    32   0.365E-02    0.107E-02
DAV:   6    -0.194332148205E+02   -0.52051E-04   -0.13802E-05    32   0.194E-02    0.242E-03
DAV:   7    -0.194332477567E+02   -0.32936E-04   -0.29487E-06    48   0.632E-03    0.163E-03
DAV:   8    -0.194333226488E+02   -0.74892E-04   -0.12219E-05    32   0.117E-02    0.936E-04
DAV:   9    -0.194333616259E+02   -0.38977E-04   -0.58286E-06    40   0.750E-03    0.633E-04
DAV:  10    -0.194333790784E+02   -0.17453E-04   -0.13637E-06    32   0.388E-03    0.321E-04
DAV:  11    -0.194333890207E+02   -0.99423E-05   -0.19932E-07    32   0.227E-03
  68 F= -.19433389E+02 E0= -.19433389E+02  d E =0.501224E-01
quench:  g(F)=  0.000E+00 g(S)=  0.000E+00 dE (1.order)= 0.000E+00
 bond charge predicted
       N       E                     dE             d eps       ncg     rms          rms(c)
DAV:   1    -0.194626855804E+02   -0.29307E-01   -0.50729E-01    48   0.394E+00    0.167E-01
DAV:   2    -0.194627116494E+02   -0.26069E-04   -0.46676E-03    40   0.321E-01    0.930E-02
DAV:   3    -0.194626173689E+02    0.94280E-04   -0.35425E-04    32   0.692E-02    0.382E-02
DAV:   4    -0.194625856547E+02    0.31714E-04   -0.92764E-05    32   0.434E-02    0.911E-03
DAV:   5    -0.194625893332E+02   -0.36784E-05   -0.84275E-06    32   0.137E-02
  69 F= -.19462589E+02 E0= -.19462589E+02  d E =-.292003E-01
quench:  g(F)=  0.000E+00 g(S)=  0.000E+00 dE (1.order)= 0.000E+00
 bond charge predicted
       N       E                     dE             d eps       ncg     rms          rms(c)
DAV:   1    -0.194730617216E+02   -0.10476E-01   -0.10999E-01    32   0.180E+00    0.823E-02
DAV:   2    -0.194730536967E+02    0.80250E-05   -0.14235E-03    40   0.170E-01    0.456E-02
DAV:   3    -0.194730287456E+02    0.24951E-04   -0.92611E-05    32   0.369E-02    0.215E-02
DAV:   4    -0.194730271211E+02    0.16245E-05   -0.29343E-05    32   0.269E-02
  70 F= -.19473027E+02 E0= -.19473027E+02  d E =-.104378E-01
quench:  g(F)=  0.000E+00 g(S)=  0.000E+00 dE (1.order)= 0.000E+00
 bond charge predicted
       N       E                     dE             d eps       ncg     rms          rms(c)
DAV:   1    -0.194748577598E+02   -0.18290E-02   -0.57561E-03    32   0.413E-01    0.189E-02
DAV:   2    -0.194748631225E+02   -0.53627E-05   -0.53634E-05    32   0.363E-02
  71 F= -.19474863E+02 E0= -.19474863E+02  d E =-.183600E-02
quench:  g(F)=  0.000E+00 g(S)=  0.000E+00 dE (1.order)= 0.000E+00
 bond charge predicted
       N       E                     dE             d eps       ncg     rms          rms(c)
DAV:   1    -0.194706590525E+02    0.41987E-02   -0.14282E-02    32   0.647E-01    0.290E-02
DAV:   2    -0.194706634649E+02   -0.44124E-05   -0.18024E-04    32   0.609E-02    0.160E-02
DAV:   3    -0.194706637015E+02   -0.23654E-06   -0.13636E-05    32   0.149E-02
  72 F= -.19470664E+02 E0= -.19470664E+02  d E =0.419942E-02
quench:  g(F)=  0.000E+00 g(S)=  0.000E+00 dE (1.order)= 0.000E+00
 bond charge predicted
       N       E                     dE             d eps       ncg     rms          rms(c)
DAV:   1    -0.194645625929E+02    0.61009E-02   -0.21159E-02    32   0.812E-01    0.337E-02
DAV:   2    -0.194645642266E+02   -0.16337E-05   -0.18763E-04    32   0.620E-02    0.186E-02
DAV:   3    -0.194645629976E+02    0.12290E-05   -0.16886E-05    40   0.162E-02
  73 F= -.19464563E+02 E0= -.19464563E+02  d E =0.610070E-02
quench:  g(F)=  0.000E+00 g(S)=  0.000E+00 dE (1.order)= 0.000E+00
 bond charge predicted
       N       E                     dE             d eps       ncg     rms          rms(c)
DAV:   1    -0.194634735452E+02    0.10907E-02   -0.22084E-03    32   0.260E-01    0.100E-02
DAV:   2    -0.194634753163E+02   -0.17711E-05   -0.24748E-05    32   0.253E-02
  74 F= -.19463475E+02 E0= -.19463475E+02  d E =0.108768E-02
quench:  g(F)=  0.000E+00 g(S)=  0.000E+00 dE (1.order)= 0.000E+00
 bond charge predicted
       N       E                     dE             d eps       ncg     rms          rms(c)
DAV:   1    -0.194650676815E+02   -0.15941E-02   -0.29066E-03    32   0.294E-01    0.128E-02
DAV:   2    -0.194650685215E+02   -0.84000E-06   -0.23727E-05    32   0.248E-02
  75 F= -.19465069E+02 E0= -.19465069E+02  d E =-.159321E-02
quench:  g(F)=  0.000E+00 g(S)=  0.000E+00 dE (1.order)= 0.000E+00
 bond charge predicted
       N       E                     dE             d eps       ncg     rms          rms(c)
DAV:   1    -0.194665678903E+02   -0.15002E-02   -0.61848E-03    32   0.423E-01    0.177E-02
DAV:   2    -0.194665713520E+02   -0.34617E-05   -0.61482E-05    40   0.395E-02
  76 F= -.19466571E+02 E0= -.19466571E+02  d E =-.150283E-02
quench:  g(F)=  0.000E+00 g(S)=  0.000E+00 dE (1.order)= 0.000E+00
 bond charge predicted
       N       E                     dE             d eps       ncg     rms          rms(c)
DAV:   1    -0.194677734530E+02   -0.12056E-02   -0.41422E-02    32   0.110E+00    0.460E-02
DAV:   2    -0.194677968636E+02   -0.23411E-04   -0.41434E-04    40   0.103E-01    0.292E-02
DAV:   3    -0.194677850190E+02    0.11845E-04   -0.44560E-05    32   0.301E-02    0.471E-03
DAV:   4    -0.194677859943E+02   -0.97538E-06   -0.40270E-06    48   0.940E-03
  77 F= -.19467786E+02 E0= -.19467786E+02  d E =-.121464E-02
quench:  g(F)=  0.000E+00 g(S)=  0.000E+00 dE (1.order)= 0.000E+00
 bond charge predicted
       N       E                     dE             d eps       ncg     rms          rms(c)
DAV:   1    -0.194889590496E+02   -0.21174E-01   -0.27523E+00    40   0.889E+00    0.371E-01
DAV:   2    -0.194904569652E+02   -0.14979E-02   -0.27986E-02    40   0.852E-01    0.233E-01
DAV:   3    -0.194897602095E+02    0.69676E-03   -0.26250E-03    48   0.213E-01    0.386E-02
DAV:   4    -0.194897683539E+02   -0.81444E-05   -0.24482E-04    32   0.719E-02    0.218E-02
DAV:   5    -0.194897815330E+02   -0.13179E-04   -0.24671E-05    32   0.236E-02    0.926E-03
DAV:   6    -0.194898086634E+02   -0.27130E-04   -0.11936E-05    32   0.159E-02    0.200E-03
DAV:   7    -0.194898319534E+02   -0.23290E-04   -0.20769E-06    32   0.618E-03    0.152E-03
DAV:   8    -0.194898816069E+02   -0.49653E-04   -0.89272E-06    32   0.994E-03    0.898E-04
DAV:   9    -0.194899063807E+02   -0.24774E-04   -0.37324E-06    48   0.618E-03    0.688E-04
DAV:  10    -0.194899294975E+02   -0.23117E-04   -0.37060E-06    32   0.648E-03    0.316E-04
DAV:  11    -0.194899336960E+02   -0.41985E-05   -0.12071E-07    48   0.173E-03
  78 F= -.19489934E+02 E0= -.19489934E+02  d E =-.221477E-01
quench:  g(F)=  0.000E+00 g(S)=  0.000E+00 dE (1.order)= 0.000E+00
 bond charge predicted
       N       E                     dE             d eps       ncg     rms          rms(c)
DAV:   1    -0.194853310818E+02    0.45984E-02   -0.86657E-02    32   0.159E+00    0.687E-02
DAV:   2    -0.194853767272E+02   -0.45645E-04   -0.93526E-04    40   0.150E-01    0.438E-02
DAV:   3    -0.194853485720E+02    0.28155E-04   -0.91016E-05    32   0.400E-02    0.815E-03
DAV:   4    -0.194853482299E+02    0.34215E-06   -0.92442E-06    32   0.138E-02
  79 F= -.19485348E+02 E0= -.19485348E+02  d E =0.458547E-02
quench:  g(F)=  0.000E+00 g(S)=  0.000E+00 dE (1.order)= 0.000E+00
 bond charge predicted
       N       E                     dE             d eps       ncg     rms          rms(c)
DAV:   1    -0.194756441180E+02    0.97045E-02   -0.98064E-01    32   0.532E+00    0.222E-01
DAV:   2    -0.194761362024E+02   -0.49208E-03   -0.10025E-02    40   0.499E-01    0.138E-01
DAV:   3    -0.194758822350E+02    0.25397E-03   -0.98033E-04    32   0.125E-01    0.374E-02
DAV:   4    -0.194758670199E+02    0.15215E-04   -0.18009E-04    32   0.577E-02    0.156E-02
DAV:   5    -0.194758746565E+02   -0.76367E-05   -0.13149E-05    32   0.179E-02
  80 F= -.19475875E+02 E0= -.19475875E+02  d E =0.947357E-02
quench:  g(F)=  0.000E+00 g(S)=  0.000E+00 dE (1.order)= 0.000E+00
 bond charge predicted
       N       E                     dE             d eps       ncg     rms          rms(c)
DAV:   1    -0.194679617196E+02    0.79053E-02   -0.56029E-01    32   0.409E+00    0.220E-01
DAV:   2    -0.194676703036E+02    0.29142E-03   -0.98975E-03    40   0.441E-01    0.128E-01
DAV:   3    -0.194674268164E+02    0.24349E-03   -0.10781E-03    56   0.125E-01    0.570E-02
DAV:   4    -0.194673631257E+02    0.63691E-04   -0.31043E-04    32   0.795E-02    0.152E-02
DAV:   5    -0.194673775004E+02   -0.14375E-04   -0.28319E-05    32   0.245E-02    0.730E-03
DAV:   6    -0.194673993116E+02   -0.21811E-04   -0.52355E-06    32   0.120E-02    0.163E-03
DAV:   7    -0.194674154725E+02   -0.16161E-04   -0.10325E-06    56   0.363E-03    0.102E-03
DAV:   8    -0.194674451153E+02   -0.29643E-04   -0.46142E-06    32   0.711E-03    0.764E-04
DAV:   9    -0.194674600389E+02   -0.14924E-04   -0.16839E-06    40   0.402E-03    0.401E-04
DAV:  10    -0.194674671064E+02   -0.70675E-05   -0.95044E-07    32   0.316E-03
  81 F= -.19467467E+02 E0= -.19467467E+02  d E =0.840755E-02
quench:  g(F)=  0.000E+00 g(S)=  0.000E+00 dE (1.order)= 0.000E+00
 bond charge predicted
       N       E                     dE             d eps       ncg     rms          rms(c)
DAV:   1    -0.194761802187E+02   -0.87202E-02   -0.28656E-01    32   0.292E+00    0.172E-01
DAV:   2    -0.194758805115E+02    0.29971E-03   -0.57399E-03    40   0.329E-01    0.977E-02
DAV:   3    -0.194757230959E+02    0.15742E-03   -0.80820E-04    32   0.106E-01    0.441E-02
DAV:   4    -0.194756829385E+02    0.40157E-04   -0.23043E-04    32   0.721E-02    0.127E-02
DAV:   5    -0.194756821970E+02    0.74146E-06   -0.19231E-05    32   0.206E-02
  82 F= -.19475682E+02 E0= -.19475682E+02  d E =-.821509E-02
quench:  g(F)=  0.000E+00 g(S)=  0.000E+00 dE (1.order)= 0.000E+00
 bond charge predicted
       N       E                     dE             d eps       ncg     rms          rms(c)
DAV:   1    -0.194792661817E+02   -0.35832E-02   -0.16819E-01    32   0.220E+00    0.907E-02
DAV:   2    -0.194793778778E+02   -0.11170E-03   -0.17474E-03    40   0.212E-01    0.576E-02
DAV:   3    -0.194793136267E+02    0.64251E-04   -0.18128E-04    32   0.568E-02    0.118E-02
DAV:   4    -0.194793161816E+02   -0.25550E-05   -0.26779E-05    32   0.219E-02
  83 F= -.19479316E+02 E0= -.19479316E+02  d E =-.363398E-02
quench:  g(F)=  0.000E+00 g(S)=  0.000E+00 dE (1.order)= 0.000E+00
 bond charge predicted
       N       E                     dE             d eps       ncg     rms          rms(c)
DAV:   1    -0.194789552501E+02    0.35838E-03   -0.15960E-01    32   0.217E+00    0.877E-02
DAV:   2    -0.194790650880E+02   -0.10984E-03   -0.16879E-03    32   0.204E-01    0.555E-02
DAV:   3    -0.194790275728E+02    0.37515E-04   -0.16277E-04    32   0.589E-02    0.110E-02
DAV:   4    -0.194790281163E+02   -0.54357E-06   -0.18832E-05    48   0.195E-02
  84 F= -.19479028E+02 E0= -.19479028E+02  d E =0.288065E-03
quench:  g(F)=  0.000E+00 g(S)=  0.000E+00 dE (1.order)= 0.000E+00
 bond charge predicted
       N       E                     dE             d eps       ncg     rms          rms(c)
DAV:   1    -0.194684509369E+02    0.10577E-01   -0.50948E-01    32   0.384E+00    0.174E-01
DAV:   2    -0.194686264361E+02   -0.17550E-03   -0.64230E-03    40   0.386E-01    0.111E-01
DAV:   3    -0.194684680823E+02    0.15835E-03   -0.81593E-04    56   0.100E-01    0.499E-02
DAV:   4    -0.194684276741E+02    0.40408E-04   -0.25480E-04    32   0.683E-02    0.136E-02
DAV:   5    -0.194684284346E+02   -0.76054E-06   -0.18376E-05    32   0.207E-02
  85 F= -.19468428E+02 E0= -.19468428E+02  d E =0.105997E-01
quench:  g(F)=  0.000E+00 g(S)=  0.000E+00 dE (1.order)= 0.000E+00
 bond charge predicted
       N       E                     dE             d eps       ncg     rms          rms(c)
DAV:   1    -0.194767536303E+02   -0.83260E-02   -0.54026E-01    32   0.395E+00    0.171E-01
DAV:   2    -0.194770688421E+02   -0.31521E-03   -0.64375E-03    40   0.395E-01    0.111E-01
DAV:   3    -0.194768871830E+02    0.18166E-03   -0.72441E-04    48   0.103E-01    0.389E-02
DAV:   4    -0.194768602594E+02    0.26924E-04   -0.18971E-04    32   0.593E-02    0.137E-02
DAV:   5    -0.194768589771E+02    0.12824E-05   -0.14928E-05    32   0.185E-02
  86 F= -.19476859E+02 E0= -.19476859E+02  d E =-.843054E-02
quench:  g(F)=  0.000E+00 g(S)=  0.000E+00 dE (1.order)= 0.000E+00
 bond charge predicted
       N       E                     dE             d eps       ncg     rms          rms(c)
DAV:   1    -0.194768718665E+02   -0.11607E-04   -0.25515E-03    32   0.271E-01    0.123E-02
DAV:   2    -0.194768730509E+02   -0.11845E-05   -0.36465E-05    32   0.292E-02
  87 F= -.19476873E+02 E0= -.19476873E+02  d E =-.140738E-04
quench:  g(F)=  0.000E+00 g(S)=  0.000E+00 dE (1.order)= 0.000E+00
 bond charge predicted
       N       E                     dE             d eps       ncg     rms          rms(c)
DAV:   1    -0.194763075179E+02    0.56435E-03   -0.28829E-04    32   0.960E-02    0.443E-03
DAV:   2    -0.194763081711E+02   -0.65326E-06   -0.55473E-06    32   0.104E-02
  88 F= -.19476308E+02 E0= -.19476308E+02  d E =0.564880E-03
quench:  g(F)=  0.000E+00 g(S)=  0.000E+00 dE (1.order)= 0.000E+00
 bond charge predicted
       N       E                     dE             d eps       ncg     rms          rms(c)
DAV:   1    -0.194766858653E+02   -0.37835E-03   -0.28144E-04    32   0.920E-02    0.433E-03
DAV:   2    -0.194766864477E+02   -0.58233E-06   -0.26338E-06    32   0.807E-03
  89 F= -.19476686E+02 E0= -.19476686E+02  d E =-.378277E-03
quench:  g(F)=  0.000E+00 g(S)=  0.000E+00 dE (1.order)= 0.000E+00
 bond charge predicted
       N       E                     dE             d eps       ncg     rms          rms(c)
DAV:   1    -0.194780247357E+02   -0.13389E-02   -0.78458E-04    32   0.159E-01    0.659E-03
DAV:   2    -0.194780248982E+02   -0.16244E-06   -0.86174E-06    32   0.122E-02
  90 F= -.19478025E+02 E0= -.19478025E+02  d E =-.133845E-02
quench:  g(F)=  0.000E+00 g(S)=  0.000E+00 dE (1.order)= 0.000E+00
 bond charge predicted
       N       E                     dE             d eps       ncg     rms          rms(c)
DAV:   1    -0.194804053437E+02   -0.23806E-02   -0.11547E-02    32   0.598E-01    0.246E-02
DAV:   2    -0.194804117517E+02   -0.64080E-05   -0.15844E-04    32   0.577E-02    0.147E-02
DAV:   3    -0.194804101442E+02    0.16075E-05   -0.79084E-06    48   0.128E-02
  91 F= -.19480410E+02 E0= -.19480410E+02  d E =-.238525E-02
quench:  g(F)=  0.000E+00 g(S)=  0.000E+00 dE (1.order)= 0.000E+00
 bond charge predicted
       N       E                     dE             d eps       ncg     rms          rms(c)
DAV:   1    -0.194792550861E+02    0.11567E-02   -0.14815E-02    32   0.667E-01    0.284E-02
DAV:   2    -0.194792642517E+02   -0.91656E-05   -0.19488E-04    32   0.677E-02    0.180E-02
DAV:   3    -0.194792614564E+02    0.27953E-05   -0.12030E-05    32   0.166E-02
  92 F= -.19479261E+02 E0= -.19479261E+02  d E =0.114869E-02
quench:  g(F)=  0.000E+00 g(S)=  0.000E+00 dE (1.order)= 0.000E+00
 bond charge predicted
       N       E                     dE             d eps       ncg     rms          rms(c)
DAV:   1    -0.194778105647E+02    0.14537E-02   -0.69939E-03    32   0.452E-01    0.191E-02
DAV:   2    -0.194778142010E+02   -0.36363E-05   -0.74195E-05    40   0.434E-02
  93 F= -.19477814E+02 E0= -.19477814E+02  d E =0.144726E-02
quench:  g(F)=  0.000E+00 g(S)=  0.000E+00 dE (1.order)= 0.000E+00
 bond charge predicted
       N       E                     dE             d eps       ncg     rms          rms(c)
DAV:   1    -0.194772159252E+02    0.59464E-03   -0.34047E-03    32   0.318E-01    0.145E-02
DAV:   2    -0.194772177586E+02   -0.18333E-05   -0.33498E-05    32   0.295E-02
  94 F= -.19477218E+02 E0= -.19477218E+02  d E =0.596442E-03
quench:  g(F)=  0.000E+00 g(S)=  0.000E+00 dE (1.order)= 0.000E+00
 bond charge predicted
       N       E                     dE             d eps       ncg     rms          rms(c)
DAV:   1    -0.194773449326E+02   -0.12901E-03   -0.36632E-04    32   0.103E-01    0.382E-03
DAV:   2    -0.194773450134E+02   -0.80740E-07   -0.64773E-06    48   0.116E-02
  95 F= -.19477345E+02 E0= -.19477345E+02  d E =-.127255E-03
quench:  g(F)=  0.000E+00 g(S)=  0.000E+00 dE (1.order)= 0.000E+00
 bond charge predicted
       N       E                     dE             d eps       ncg     rms          rms(c)
DAV:   1    -0.194717739588E+02    0.55710E-02   -0.64851E-02    48   0.141E+00    0.620E-02
DAV:   2    -0.194717995247E+02   -0.25566E-04   -0.72007E-04    40   0.136E-01    0.372E-02
DAV:   3    -0.194717756122E+02    0.23912E-04   -0.89011E-05    32   0.465E-02    0.802E-03
DAV:   4    -0.194717765319E+02   -0.91977E-06   -0.49231E-06    32   0.119E-02
  96 F= -.19471777E+02 E0= -.19471777E+02  d E =0.556848E-02
quench:  g(F)=  0.000E+00 g(S)=  0.000E+00 dE (1.order)= 0.000E+00
 bond charge predicted
       N       E                     dE             d eps       ncg     rms          rms(c)
DAV:   1    -0.194795445730E+02   -0.77690E-02   -0.36839E-02    32   0.106E+00    0.465E-02
DAV:   2    -0.194795464431E+02   -0.18702E-05   -0.31773E-04    32   0.911E-02    0.271E-02
DAV:   3    -0.194795370271E+02    0.94160E-05   -0.73682E-05    32   0.388E-02
  97 F= -.19479537E+02 E0= -.19479537E+02  d E =-.776050E-02
quench:  g(F)=  0.000E+00 g(S)=  0.000E+00 dE (1.order)= 0.000E+00
 bond charge predicted
       N       E                     dE             d eps       ncg     rms          rms(c)
DAV:   1    -0.194568280513E+02    0.22718E-01   -0.10059E+01    32   0.171E+01    0.718E-01
DAV:   2    -0.194625296228E+02   -0.57016E-02   -0.10866E-01    40   0.166E+00    0.454E-01
DAV:   3    -0.194606456061E+02    0.18840E-02   -0.14575E-02    48   0.431E-01    0.158E-01
DAV:   4    -0.194603726953E+02    0.27291E-03   -0.34268E-03    32   0.221E-01    0.530E-02
DAV:   5    -0.194603732266E+02   -0.53134E-06   -0.18877E-04    40   0.685E-02    0.276E-02
DAV:   6    -0.194604282116E+02   -0.54985E-04   -0.73069E-05    32   0.439E-02    0.612E-03
DAV:   7    -0.194604765263E+02   -0.48315E-04   -0.13977E-05    48   0.158E-02    0.302E-03
DAV:   8    -0.194605743514E+02   -0.97825E-04   -0.22699E-05    32   0.174E-02    0.186E-03
DAV:   9    -0.194606198945E+02   -0.45543E-04   -0.65013E-06    48   0.831E-03    0.120E-03
DAV:  10    -0.194606757538E+02   -0.55859E-04   -0.17120E-05    32   0.130E-02    0.822E-04
DAV:  11    -0.194606877843E+02   -0.12030E-04   -0.48115E-07    48   0.274E-03    0.465E-04
DAV:  12    -0.194607013610E+02   -0.13577E-04   -0.40190E-07    32   0.286E-03    0.317E-04
DAV:  13    -0.194607062529E+02   -0.48918E-05   -0.27963E-07    32   0.271E-03
  98 F= -.19460706E+02 E0= -.19460706E+02  d E =0.188308E-01
quench:  g(F)=  0.000E+00 g(S)=  0.000E+00 dE (1.order)= 0.000E+00
 bond charge predicted
       N       E                     dE             d eps       ncg     rms          rms(c)
DAV:   1    -0.194745322433E+02   -0.13831E-01   -0.91942E+00    32   0.163E+01    0.663E-01
DAV:   2    -0.194807467923E+02   -0.62145E-02   -0.10119E-01    40   0.161E+00    0.434E-01
DAV:   3    -0.194783365748E+02    0.24102E-02   -0.10979E-02    40   0.442E-01    0.723E-02
DAV:   4    -0.194783672440E+02   -0.30669E-04   -0.86983E-04    32   0.144E-01    0.446E-02
DAV:   5    -0.194783971944E+02   -0.29950E-04   -0.13349E-04    32   0.536E-02    0.166E-02
DAV:   6    -0.194784629744E+02   -0.65780E-04   -0.41459E-05    48   0.263E-02    0.479E-03
DAV:   7    -0.194785473970E+02   -0.84423E-04   -0.84092E-06    32   0.122E-02    0.323E-03
DAV:   8    -0.194786610356E+02   -0.11364E-03   -0.13373E-05    32   0.124E-02    0.168E-03
DAV:   9    -0.194787606132E+02   -0.99578E-04   -0.12474E-05    48   0.114E-02    0.110E-03
DAV:  10    -0.194788298697E+02   -0.69257E-04   -0.10956E-05    32   0.108E-02    0.730E-04
DAV:  11    -0.194788605586E+02   -0.30689E-04   -0.17007E-06    32   0.513E-03    0.370E-04
DAV:  12    -0.194788659115E+02   -0.53529E-05   -0.13977E-07    48   0.197E-03
  99 F= -.19478866E+02 E0= -.19478866E+02  d E =-.181597E-01
quench:  g(F)=  0.000E+00 g(S)=  0.000E+00 dE (1.order)= 0.000E+00
 bond charge predicted
       N       E                     dE             d eps       ncg     rms          rms(c)
DAV:   1    -0.194808487152E+02   -0.19882E-02   -0.98804E-03    32   0.557E-01    0.296E-02
DAV:   2    -0.194808368313E+02    0.11884E-04   -0.16109E-04    48   0.584E-02    0.160E-02
DAV:   3    -0.194808324125E+02    0.44188E-05   -0.27659E-05    32   0.213E-02
 100 F= -.19480832E+02 E0= -.19480832E+02  d E =-.196650E-02
quench:  g(F)=  0.000E+00 g(S)=  0.000E+00 dE (1.order)= 0.000E+00
 writing wavefunctions
