<?xml version="1.0" encoding="ISO-8859-1"?>
<modeling>
 <generator>
  <i name="program" type="string">vasp </i>
  <i name="version" type="string">5.4.1  </i>
  <i name="subversion" type="string">24Jun15 (build Nov 26 2018 14:23:16) complex                          parallel </i>
  <i name="platform" type="string">IFC91_ompi </i>
  <i name="date" type="string">2018 11 26 </i>
  <i name="time" type="string">14:47:40 </i>
 </generator>
 <incar>
  <i type="string" name="SYSTEM">hcn</i>
  <i type="int" name="ISTART">     0</i>
  <i type="string" name="PREC">normal</i>
  <i type="int" name="NELM">   300</i>
  <i type="int" name="IBRION">     3</i>
  <i name="EDIFF">      0.00001000</i>
  <i name="EDIFFG">     -0.02000000</i>
  <i type="int" name="NSW">   100</i>
  <i type="int" name="ISIF">     2</i>
  <i name="ENCUT">    500.00000000</i>
  <i name="POTIM">      0.00000000</i>
  <i type="int" name="ISMEAR">     0</i>
  <i name="SIGMA">      0.01000000</i>
  <v type="int" name="KPOINT_BSE">    -1     0     0     0</v>
  <i type="int" name="NELM">   300</i>
 </incar>
 <kpoints>
  <generation param="Monkhorst-Pack">
   <v type="int" name="divisions">       1        1        1 </v>
   <v name="usershift">      0.00000000       0.00000000       0.00000000 </v>
   <v name="genvec1">      1.00000000       0.00000000       0.00000000 </v>
   <v name="genvec2">      0.00000000       1.00000000       0.00000000 </v>
   <v name="genvec3">      0.00000000       0.00000000       1.00000000 </v>
   <v name="shift">      0.00000000       0.00000000       0.00000000 </v>
  </generation>
  <varray name="kpointlist" >
   <v>       0.00000000       0.00000000       0.00000000 </v>
  </varray>
  <varray name="weights" >
   <v>       1.00000000 </v>
  </varray>
 </kpoints>
 <parameters>
  <separator name="general" >
   <i type="string" name="SYSTEM">hcn</i>
   <i type="logical" name="LCOMPAT"> F  </i>
  </separator>
  <separator name="electronic" >
   <i type="string" name="PREC">normal</i>
   <i name="ENMAX">    500.00000000</i>
   <i name="ENAUG">    644.87300000</i>
   <i name="EDIFF">      0.00001000</i>
   <i type="int" name="IALGO">    38</i>
   <i type="int" name="IWAVPR">    11</i>
   <i type="int" name="NBANDS">    16</i>
   <i name="NELECT">     10.00000000</i>
   <i type="int" name="TURBO">     0</i>
   <i type="int" name="IRESTART">     0</i>
   <i type="int" name="NREBOOT">     0</i>
   <i type="int" name="NMIN">     0</i>
   <i name="EREF">      0.00000000</i>
   <separator name="electronic smearing" >
    <i type="int" name="ISMEAR">     0</i>
    <i name="SIGMA">      0.01000000</i>
    <i name="KSPACING">      0.50000000</i>
    <i type="logical" name="KGAMMA"> T  </i>
   </separator>
   <separator name="electronic projectors" >
    <i type="logical" name="LREAL"> F  </i>
    <v name="ROPT">      0.00000000      0.00000000      0.00000000</v>
    <i type="int" name="LMAXPAW">  -100</i>
    <i type="int" name="LMAXMIX">     2</i>
    <i type="logical" name="NLSPLINE"> F  </i>
   </separator>
   <separator name="electronic startup" >
    <i type="int" name="ISTART">     0</i>
    <i type="int" name="ICHARG">     2</i>
    <i type="int" name="INIWAV">     1</i>
   </separator>
   <separator name="electronic spin" >
    <i type="int" name="ISPIN">     1</i>
    <i type="logical" name="LNONCOLLINEAR"> F  </i>
    <v name="MAGMOM">      1.00000000      1.00000000      1.00000000</v>
    <i name="NUPDOWN">     -1.00000000</i>
    <i type="logical" name="LSORBIT"> F  </i>
    <v name="SAXIS">      0.00000000      0.00000000      1.00000000</v>
    <i type="logical" name="LSPIRAL"> F  </i>
    <v name="QSPIRAL">      0.00000000      0.00000000      0.00000000</v>
    <i type="logical" name="LZEROZ"> F  </i>
   </separator>
   <separator name="electronic exchange-correlation" >
    <i type="logical" name="LASPH"> F  </i>
    <i type="logical" name="LMETAGGA"> F  </i>
   </separator>
   <separator name="electronic convergence" >
    <i type="int" name="NELM">   300</i>
    <i type="int" name="NELMDL">    -5</i>
    <i type="int" name="NELMIN">     2</i>
    <i name="ENINI">    500.00000000</i>
    <separator name="electronic convergence detail" >
     <i type="logical" name="LDIAG"> T  </i>
     <i type="logical" name="LSUBROT"> F  </i>
     <i name="WEIMIN">      0.00100000</i>
     <i name="EBREAK">      0.00000016</i>
     <i name="DEPER">      0.30000000</i>
     <i type="int" name="NRMM">     4</i>
     <i name="TIME">      0.40000000</i>
    </separator>
   </separator>
   <separator name="electronic mixer" >
    <i name="AMIX">      0.40000000</i>
    <i name="BMIX">      1.00000000</i>
    <i name="AMIN">      0.10000000</i>
    <i name="AMIX_MAG">      1.60000000</i>
    <i name="BMIX_MAG">      1.00000000</i>
    <separator name="electronic mixer details" >
     <i type="int" name="IMIX">     4</i>
     <i type="logical" name="MIXFIRST"> F  </i>
     <i type="int" name="MAXMIX">   -45</i>
     <i name="WC">    100.00000000</i>
     <i type="int" name="INIMIX">     1</i>
     <i type="int" name="MIXPRE">     1</i>
     <i type="int" name="MREMOVE">     5</i>
    </separator>
   </separator>
   <separator name="electronic dipolcorrection" >
    <i type="logical" name="LDIPOL"> F  </i>
    <i type="logical" name="LMONO"> F  </i>
    <i type="int" name="IDIPOL">     0</i>
    <i name="EPSILON">      1.00000000</i>
    <v name="DIPOL">   -100.00000000   -100.00000000   -100.00000000</v>
    <i name="EFIELD">      0.00000000</i>
   </separator>
  </separator>
  <separator name="grids" >
   <i type="int" name="NGX">   112</i>
   <i type="int" name="NGY">   112</i>
   <i type="int" name="NGZ">   112</i>
   <i type="int" name="NGXF">   224</i>
   <i type="int" name="NGYF">   224</i>
   <i type="int" name="NGZF">   224</i>
   <i type="logical" name="ADDGRID"> F  </i>
  </separator>
  <separator name="ionic" >
   <i type="int" name="NSW">   100</i>
   <i type="int" name="IBRION">     3</i>
   <i type="int" name="ISIF">     2</i>
   <i name="PSTRESS">      0.00000000</i>
   <i name="EDIFFG">     -0.02000000</i>
   <i type="int" name="NFREE">     0</i>
   <i name="POTIM">      0.00000000</i>
   <i name="SMASS">     -3.00000000</i>
   <i name="SCALEE">      1.00000000</i>
  </separator>
  <separator name="ionic md" >
   <i name="TEBEG">      0.00010000</i>
   <i name="TEEND">      0.00010000</i>
   <i type="int" name="NBLOCK">     1</i>
   <i type="int" name="KBLOCK">   100</i>
   <i type="int" name="NPACO">   256</i>
   <i name="APACO">     16.00000000</i>
  </separator>
  <separator name="symmetry" >
   <i type="int" name="ISYM">     2</i>
   <i name="SYMPREC">      0.00001000</i>
  </separator>
  <separator name="dos" >
   <i type="logical" name="LORBIT"> F  </i>
   <v name="RWIGS">     -1.00000000     -1.00000000     -1.00000000</v>
   <i type="int" name="NEDOS">   301</i>
   <i name="EMIN">     10.00000000</i>
   <i name="EMAX">    -10.00000000</i>
   <i name="EFERMI">      0.00000000</i>
  </separator>
  <separator name="writing" >
   <i type="int" name="NWRITE">     2</i>
   <i type="logical" name="LWAVE"> T  </i>
   <i type="logical" name="LCHARG"> T  </i>
   <i type="logical" name="LPARD"> F  </i>
   <i type="logical" name="LVTOT"> F  </i>
   <i type="logical" name="LVHAR"> F  </i>
   <i type="logical" name="LELF"> F  </i>
   <i type="logical" name="LOPTICS"> F  </i>
   <v name="STM">      0.00000000      0.00000000      0.00000000      0.00000000      0.00000000      0.00000000      0.00000000</v>
  </separator>
  <separator name="performance" >
   <i type="int" name="NPAR">     8</i>
   <i type="int" name="NSIM">     4</i>
   <i type="int" name="NBLK">    -1</i>
   <i type="logical" name="LPLANE"> T  </i>
   <i type="logical" name="LSCALAPACK"> T  </i>
   <i type="logical" name="LSCAAWARE"> F  </i>
   <i type="logical" name="LSCALU"> F  </i>
   <i type="logical" name="LASYNC"> F  </i>
   <i type="logical" name="LORBITALREAL"> F  </i>
  </separator>
  <separator name="miscellaneous" >
   <i type="int" name="IDIOT">     3</i>
   <i type="logical" name="LMUSIC"> F  </i>
   <v name="POMASS">     12.01100000     14.00100000      1.00000000</v>
   <v name="DARWINR">      0.00000000      0.00000000      0.00000000</v>
   <v name="DARWINV">      1.00000000      1.00000000      1.00000000</v>
   <i type="logical" name="LCORR"> T  </i>
  </separator>
  <i type="logical" name="GGA_COMPAT"> T  </i>
  <i type="logical" name="LBERRY"> F  </i>
  <i type="int" name="ICORELEVEL">     0</i>
  <i type="logical" name="LDAU"> F  </i>
  <i type="int" name="I_CONSTRAINED_M">     0</i>
  <separator name="electronic exchange-correlation" >
   <i type="string" name="GGA">--</i>
   <i type="int" name="VOSKOWN">     0</i>
   <i type="logical" name="LHFCALC"> F  </i>
   <i type="string" name="PRECFOCK"></i>
   <i type="logical" name="LSYMGRAD"> F  </i>
   <i type="logical" name="LHFONE"> F  </i>
   <i type="logical" name="LRHFCALC"> F  </i>
   <i type="logical" name="LTHOMAS"> F  </i>
   <i type="logical" name="LMODELHF"> F  </i>
   <i name="ENCUT4O">     -1.00000000</i>
   <i type="int" name="EXXOEP">     0</i>
   <i type="int" name="FOURORBIT">     0</i>
   <i name="AEXX">      0.00000000</i>
   <i name="HFALPHA">      0.00000000</i>
   <i name="MCALPHA">      0.00000000</i>
   <i name="ALDAX">      1.00000000</i>
   <i name="AGGAX">      1.00000000</i>
   <i name="ALDAC">      1.00000000</i>
   <i name="AGGAC">      1.00000000</i>
   <i type="int" name="NKREDX">     1</i>
   <i type="int" name="NKREDY">     1</i>
   <i type="int" name="NKREDZ">     1</i>
   <i type="logical" name="SHIFTRED"> F  </i>
   <i type="logical" name="ODDONLY"> F  </i>
   <i type="logical" name="EVENONLY"> F  </i>
   <i type="int" name="LMAXFOCK">     0</i>
   <i type="int" name="NMAXFOCKAE">     0</i>
   <i type="logical" name="LFOCKAEDFT"> F  </i>
   <i name="HFSCREEN">      0.00000000</i>
   <i name="HFSCREENC">      0.00000000</i>
   <i type="int" name="NBANDSGWLOW">     0</i>
  </separator>
  <separator name="vdW DFT" >
   <i type="logical" name="LUSE_VDW"> F  </i>
   <i name="Zab_VDW">     -0.84910000</i>
   <i name="PARAM1">      0.12340000</i>
   <i name="PARAM2">      1.00000000</i>
   <i name="PARAM3">      0.00000000</i>
  </separator>
  <separator name="model GW" >
   <i type="int" name="MODEL_GW">     0</i>
   <i name="MODEL_EPS0">   1600.00000000</i>
   <i name="MODEL_ALPHA">      1.00000000</i>
  </separator>
  <separator name="linear response parameters" >
   <i type="logical" name="LEPSILON"> F  </i>
   <i type="logical" name="LRPA"> F  </i>
   <i type="logical" name="LNABLA"> F  </i>
   <i type="logical" name="LVEL"> F  </i>
   <i type="int" name="KINTER">     0</i>
   <i name="CSHIFT">      0.10000000</i>
   <i name="OMEGAMAX">     -1.00000000</i>
   <i name="DEG_THRESHOLD">      0.00200000</i>
  </separator>
  <separator name="orbital magnetization" >
   <i type="logical" name="NUCIND"> F  </i>
   <v name="MAGPOS">      0.00000000      0.00000000      0.00000000</v>
   <i type="logical" name="LNICSALL"> T  </i>
   <i type="logical" name="ORBITALMAG"> F  </i>
   <i type="logical" name="LMAGBLOCH"> F  </i>
   <i type="logical" name="LCHIMAG"> F  </i>
   <i type="logical" name="LGAUGE"> T  </i>
   <i type="int" name="MAGATOM">     0</i>
   <v name="MAGDIPOL">      0.00000000      0.00000000      0.00000000</v>
   <v name="AVECCONST">      0.00000000      0.00000000      0.00000000</v>
  </separator>
  <separator name="response functions" >
   <i type="logical" name="LADDER"> F  </i>
   <i type="logical" name="LFXC"> F  </i>
   <i type="logical" name="LHARTREE"> T  </i>
   <i type="int" name="IBSE">     0</i>
   <v type="int" name="KPOINT">    -1     0     0     0</v>
   <i type="logical" name="LTCTE"> F  </i>
   <i type="logical" name="LTETE"> F  </i>
   <i type="logical" name="LTRIPLET"> F  </i>
   <i type="logical" name="LFXCEPS"> F  </i>
   <i type="logical" name="LFXHEG"> F  </i>
   <i type="int" name="NATURALO">     0</i>
   <i type="logical" name="L2ORDER"> F  </i>
   <i type="logical" name="LUSEW"> F  </i>
   <i name="ENCUTGW">     -2.00000000</i>
   <i name="ENCUTGWSOFT">     -2.00000000</i>
   <i name="ENCUTLF">     -1.00000000</i>
   <i type="int" name="LMAXMP2">    -1</i>
   <i name="SCISSOR">      0.00000000</i>
   <i type="int" name="NOMEGA">     0</i>
   <i type="int" name="NOMEGAR">     0</i>
   <i type="int" name="NBANDSGW">    -1</i>
   <i type="int" name="NBANDSO">    -1</i>
   <i type="int" name="NBANDSV">    -1</i>
   <i type="int" name="NELM">   300</i>
   <i type="int" name="NELMHF">     1</i>
   <i type="int" name="DIM">     3</i>
   <i type="int" name="ANTIRES">     0</i>
   <i name="OMEGAMAX">    -30.00000000</i>
   <i name="OMEGAMIN">    -30.00000000</i>
   <i name="OMEGATL">   -200.00000000</i>
   <i type="int" name="OMEGAGRID">     0</i>
   <i name="CSHIFT">     -0.10000000</i>
   <i type="logical" name="SELFENERGY"> F  </i>
   <i type="logical" name="LSPECTRAL"> F  </i>
   <i type="logical" name="LSPECTRALGW"> F  </i>
   <i type="logical" name="LSINGLES"> F  </i>
   <i type="logical" name="LFERMIGW"> F  </i>
   <i type="logical" name="ODDONLYGW"> F  </i>
   <i type="logical" name="EVENONLYGW"> F  </i>
   <i type="int" name="NKREDLFX">     1</i>
   <i type="int" name="NKREDLFY">     1</i>
   <i type="int" name="NKREDLFZ">     1</i>
   <i type="int" name="MAXMEM">  1800</i>
   <i type="int" name="TELESCOPE">     0</i>
   <i type="int" name="TAUPAR">     1</i>
   <i type="int" name="OMEGAPAR">    -1</i>
   <i name="LAMBDA">      1.00000000</i>
  </separator>
  <separator name="External order field" >
   <i name="OFIELD_KAPPA">      0.00000000</i>
   <v name="OFIELD_K">      0.00000000      0.00000000      0.00000000</v>
   <i name="OFIELD_Q6_NEAR">      0.00000000</i>
   <i name="OFIELD_Q6_FAR">      0.00000000</i>
   <i name="OFIELD_A">      0.00000000</i>
  </separator>
 </parameters>
 <atominfo>
  <atoms>       3 </atoms>
  <types>       3 </types>
  <array name="atoms" >
   <dimension dim="1">ion</dimension>
   <field type="string">element</field>
   <field type="int">atomtype</field>
   <set>
    <rc><c>C </c><c>   1</c></rc>
    <rc><c>N </c><c>   2</c></rc>
    <rc><c>H </c><c>   3</c></rc>
   </set>
  </array>
  <array name="atomtypes" >
   <dimension dim="1">type</dimension>
   <field type="int">atomspertype</field>
   <field type="string">element</field>
   <field>mass</field>
   <field>valence</field>
   <field type="string">pseudopotential</field>
   <set>
    <rc><c>   1</c><c>C </c><c>     12.01100000</c><c>      4.00000000</c><c> PAW_GGA C 05Jan2001                    </c></rc>
    <rc><c>   1</c><c>N </c><c>     14.00100000</c><c>      5.00000000</c><c> PAW_GGA N 31May2000                    </c></rc>
    <rc><c>   1</c><c>H </c><c>      1.00000000</c><c>      1.00000000</c><c> PAW_GGA H 07Jul1998                    </c></rc>
   </set>
  </array>
 </atominfo>
 <structure name="initialpos" >
  <crystal>
   <varray name="basis" >
    <v>      20.00000000       0.00000000       0.00000000 </v>
    <v>       0.00000000      20.00000000       0.00000000 </v>
    <v>       0.00000000       0.00000000      20.00000000 </v>
   </varray>
   <i name="volume">   8000.00000000 </i>
   <varray name="rec_basis" >
    <v>       0.05000000       0.00000000       0.00000000 </v>
    <v>       0.00000000       0.05000000       0.00000000 </v>
    <v>       0.00000000       0.00000000       0.05000000 </v>
   </varray>
  </crystal>
  <varray name="positions" >
   <v>       0.49995126       0.50000000       0.47070708 </v>
   <v>       0.52892505       0.50000000       0.50009604 </v>
   <v>       0.47312369       0.50000000       0.52519688 </v>
  </varray>
 </structure>
 <calculation>
  <scstep>
   <time name="dav">    3.82    3.82</time>
   <time name="total">    7.22    7.23</time>
   <energy>
    <i name="alphaZ">      0.05489739 </i>
    <i name="ewald">    296.62035456 </i>
    <i name="hartreedc">   -578.44521397 </i>
    <i name="XCdc">     35.32279442 </i>
    <i name="pawpsdc">    150.90179179 </i>
    <i name="pawaedc">   -153.69792993 </i>
    <i name="eentropy">     -0.00000000 </i>
    <i name="bandstr">    -98.12797021 </i>
    <i name="atom">    424.98939091 </i>
    <i name="e_fr_energy">     77.61811496 </i>
    <i name="e_wo_entrp">     77.61811496 </i>
    <i name="e_0_energy">     77.61811496 </i>
   </energy>
  </scstep>
  <scstep>
   <time name="dav">    4.33    4.33</time>
   <time name="total">    4.33    4.33</time>
   <energy>
    <i name="e_fr_energy">     27.69099245 </i>
    <i name="e_wo_entrp">     27.69099245 </i>
    <i name="e_0_energy">     27.69099245 </i>
   </energy>
  </scstep>
  <scstep>
   <time name="dav">    4.69    4.69</time>
   <time name="total">    4.69    4.69</time>
   <energy>
    <i name="e_fr_energy">    -15.38339869 </i>
    <i name="e_wo_entrp">    -15.38339869 </i>
    <i name="e_0_energy">    -15.38339869 </i>
   </energy>
  </scstep>
  <scstep>
   <time name="dav">    4.77    4.77</time>
   <time name="total">    4.77    4.77</time>
   <energy>
    <i name="e_fr_energy">    -15.46954930 </i>
    <i name="e_wo_entrp">    -15.46954930 </i>
    <i name="e_0_energy">    -15.46954930 </i>
   </energy>
  </scstep>
  <scstep>
   <time name="dav">    3.08    3.09</time>
   <time name="total">    3.69    3.69</time>
   <energy>
    <i name="e_fr_energy">    -15.46956605 </i>
    <i name="e_wo_entrp">    -15.46956605 </i>
    <i name="e_0_energy">    -15.46956605 </i>
   </energy>
  </scstep>
  <scstep>
   <time name="dav">    4.20    4.21</time>
   <time name="total">    7.76    7.79</time>
   <energy>
    <i name="e_fr_energy">     -2.04472739 </i>
    <i name="e_wo_entrp">     -2.04472739 </i>
    <i name="e_0_energy">     -2.04472739 </i>
   </energy>
  </scstep>
  <scstep>
   <time name="dav">    3.80    3.81</time>
   <time name="total">    8.01    8.03</time>
   <energy>
    <i name="e_fr_energy">     -1.01848836 </i>
    <i name="e_wo_entrp">     -1.01848836 </i>
    <i name="e_0_energy">     -1.01848836 </i>
   </energy>
  </scstep>
  <scstep>
   <time name="dav">    3.66    3.68</time>
   <time name="total">    7.66    7.68</time>
   <energy>
    <i name="e_fr_energy">     -1.00034295 </i>
    <i name="e_wo_entrp">     -1.00034295 </i>
    <i name="e_0_energy">     -1.00034295 </i>
   </energy>
  </scstep>
  <scstep>
   <time name="dav">    3.74    3.75</time>
   <time name="total">    7.80    7.82</time>
   <energy>
    <i name="e_fr_energy">     -0.98583312 </i>
    <i name="e_wo_entrp">     -0.98583312 </i>
    <i name="e_0_energy">     -0.98583312 </i>
   </energy>
  </scstep>
  <scstep>
   <time name="dav">    4.20    4.22</time>
   <time name="total">    8.32    8.35</time>
   <energy>
    <i name="e_fr_energy">     -0.98541165 </i>
    <i name="e_wo_entrp">     -0.98541165 </i>
    <i name="e_0_energy">     -0.98541165 </i>
   </energy>
  </scstep>
  <scstep>
   <time name="dav">    2.63    2.64</time>
   <time name="total">    6.69    6.71</time>
   <energy>
    <i name="e_fr_energy">     -0.98658931 </i>
    <i name="e_wo_entrp">     -0.98658931 </i>
    <i name="e_0_energy">     -0.98658931 </i>
   </energy>
  </scstep>
  <scstep>
   <time name="dav">    3.72    3.73</time>
   <time name="total">    7.80    7.83</time>
   <energy>
    <i name="e_fr_energy">     -0.98929975 </i>
    <i name="e_wo_entrp">     -0.98929975 </i>
    <i name="e_0_energy">     -0.98929975 </i>
   </energy>
  </scstep>
  <scstep>
   <time name="dav">    2.90    2.91</time>
   <time name="total">    7.04    7.06</time>
   <energy>
    <i name="e_fr_energy">     -0.99303218 </i>
    <i name="e_wo_entrp">     -0.99303218 </i>
    <i name="e_0_energy">     -0.99303218 </i>
   </energy>
  </scstep>
  <scstep>
   <time name="dav">    3.76    3.77</time>
   <time name="total">    7.98    8.01</time>
   <energy>
    <i name="e_fr_energy">     -0.99473246 </i>
    <i name="e_wo_entrp">     -0.99473246 </i>
    <i name="e_0_energy">     -0.99473246 </i>
   </energy>
  </scstep>
  <scstep>
   <time name="dav">    2.92    2.93</time>
   <time name="total">    6.75    6.78</time>
   <energy>
    <i name="e_fr_energy">     -0.99639023 </i>
    <i name="e_wo_entrp">     -0.99639023 </i>
    <i name="e_0_energy">     -0.99639023 </i>
   </energy>
  </scstep>
  <scstep>
   <time name="dav">    3.83    3.84</time>
   <time name="total">    8.07    8.10</time>
   <energy>
    <i name="e_fr_energy">     -0.99683070 </i>
    <i name="e_wo_entrp">     -0.99683070 </i>
    <i name="e_0_energy">     -0.99683070 </i>
   </energy>
  </scstep>
  <scstep>
   <time name="dav">    3.89    3.90</time>
   <time name="total">    7.92    7.94</time>
   <energy>
    <i name="e_fr_energy">     -0.99726506 </i>
    <i name="e_wo_entrp">     -0.99726506 </i>
    <i name="e_0_energy">     -0.99726506 </i>
   </energy>
  </scstep>
  <scstep>
   <time name="dav">    3.29    3.30</time>
   <time name="total">    7.40    7.42</time>
   <energy>
    <i name="e_fr_energy">     -0.99733017 </i>
    <i name="e_wo_entrp">     -0.99733017 </i>
    <i name="e_0_energy">     -0.99733017 </i>
   </energy>
  </scstep>
  <scstep>
   <time name="dav">    3.63    3.64</time>
   <time name="total">    7.81    7.84</time>
   <energy>
    <i name="e_fr_energy">     -0.99740851 </i>
    <i name="e_wo_entrp">     -0.99740851 </i>
    <i name="e_0_energy">     -0.99740851 </i>
   </energy>
  </scstep>
  <scstep>
   <time name="dav">    2.95    2.95</time>
   <time name="total">    7.04    7.06</time>
   <energy>
    <i name="e_fr_energy">     -0.99744113 </i>
    <i name="e_wo_entrp">     -0.99744113 </i>
    <i name="e_0_energy">     -0.99744113 </i>
   </energy>
  </scstep>
  <scstep>
   <time name="dav">    2.47    2.48</time>
   <time name="total">    6.34    6.36</time>
   <energy>
    <i name="e_fr_energy">     -0.99745916 </i>
    <i name="e_wo_entrp">     -0.99745916 </i>
    <i name="e_0_energy">     -0.99745916 </i>
   </energy>
  </scstep>
  <scstep>
   <time name="dav">    1.74    1.74</time>
   <time name="total">    4.05    4.06</time>
   <energy>
    <i name="alphaZ">      0.05489739 </i>
    <i name="ewald">    353.13233969 </i>
    <i name="hartreedc">   -666.99468341 </i>
    <i name="XCdc">     39.41828901 </i>
    <i name="pawpsdc">    374.08887550 </i>
    <i name="pawaedc">   -378.64870264 </i>
    <i name="eentropy">     -0.00000000 </i>
    <i name="bandstr">   -147.03786940 </i>
    <i name="atom">    424.98939091 </i>
    <i name="e_fr_energy">     -0.99746296 </i>
    <i name="e_wo_entrp">     -0.99746296 </i>
    <i name="e_0_energy">     -0.99746296 </i>
   </energy>
  </scstep>
  <structure>
   <crystal>
    <varray name="basis" >
     <v>      20.00000000       0.00000000       0.00000000 </v>
     <v>       0.00000000      20.00000000       0.00000000 </v>
     <v>       0.00000000       0.00000000      20.00000000 </v>
    </varray>
    <i name="volume">   8000.00000000 </i>
    <varray name="rec_basis" >
     <v>       0.05000000       0.00000000       0.00000000 </v>
     <v>       0.00000000       0.05000000       0.00000000 </v>
     <v>       0.00000000       0.00000000       0.05000000 </v>
    </varray>
   </crystal>
   <varray name="positions" >
    <v>       0.49995126       0.50000000       0.47070708 </v>
    <v>       0.52892505       0.50000000       0.50009604 </v>
    <v>       0.47312369       0.50000000       0.52519688 </v>
   </varray>
  </structure>
  <varray name="forces" >
   <v>     -96.72286112       0.00000000     -96.37541722 </v>
   <v>      97.14375556       0.00000000      97.08655371 </v>
   <v>      -0.4208944  <energy>
   <i name="e_fr_energy">     -7.25261744 </i>
   <i name="e_wo_entrp">     -7.25261744 </i>
   <i name="e_0_energy">     -0.00000000 </i>
  </energy>
  <time name="totalsc">  173.75  173.80</time>
 </calculation>
076       0.00000000      11.24363898 </v>
  </varray>
  <energy>
   <i name="e_fr_energy">    -16.11593260 </i>
   <i name="e_wo_entrp">    -16.11593260 </i>
   <i name="e_0_energy">     -0.00000000 </i>
  </energy>
  <time name="totalsc">  173.93  174.03</time>
 </calculation>
576       0.00000000       0.27413770 </v>
  </varray>
  <energy>
   <i name="e_fr_energy">    -16.43683718 </i>
   <i name="e_wo_entrp">    -16.43683718 </i>
   <i name="e_0_energy">     -0.00000000 </i>
  </energy>
  <time name="totalsc">  1   <time name="dav">    2.73    2.74</time>
   <time name="tota   <time name="dav">    4.55    4.55</time>
   <time name="total">    8.23    8.23</time>
   <energy>
    <i name="alphaZ">      0.05489739 </i>
    <i name="ewald">    288.16816466 </i>
    <i name="hartreedc">   -626.23027543 </i>
    <i name="XCdc">     38.17964650 </i>
    <i name="pawpsdc">    304.91094721 </i>
    <i name="pawaedc">   -308.70173032 </i>
    <i name="eentropy">     -0.00000000 </i>
    <i name="bandstr">   -137.84667650 </i>
    <i name="atom">    424.98939091 </i>
    <i name="e_fr_energy">    -16.47563558 </i>
    <i name="e_wo_entrp">    -16.47563558 </i>
    <i name="e_0_ene   <time name="dav">    3.21    3.21</time>
   <time name="tota   <time name="dav">    4.49    4.63</time>
   <time name="total">    8.15    8.52</time>
   <energy>
    <i name="e_fr_energy">    -16.47559572 </i>
    <i name="e_wo_entrp">    -16.47559572 </i>
    <i name="e_0_ene   <time name="dav">    4.18    4.19</time>
   <time name="tota   <time name="dav">    3.13    3.13</time>
   <time name="total">    6.36    6.44</time>
   <energy>
    <i name="alphaZ">      0.05489739 </i>
    <i name="ewald">    288.16816466 </i>
    <i name="hartreedc">   -62   <time name="dav">    3.32    3.32</time>
   <time name="total">    6.44    6.44</time>   <time name="dav">    2.79    2.79</time>
   <time name="total">    6.31    6.31</time>
   <energy>
    <i name="alphaZ">      0.05489739 </i>
    <i name="ewald">    351.01694187 </i>
    <i name="hartreedc">   -665.65522089 </i>
    <i name="XCdc">     39.35932618 </i>
    <i name="pawpsdc">    371.58052454 </i>
    <i name="pawaedc">   -376.11283  <structure>
   <crystal>
    <varray name="basis" >
     <v>      20.00000000       0.00000000       0.00000000 </v>
     <v>       0.00000000      20.00000000       0.00000000 </v>
     <v>       0.00000000       0  <structure>
   <crystal>
    <varray name="basis" >
     <v>      20.00000000       0.0  <structure>
   <crystal>
    <varray name="basis" >
     <v>      20.00000000       0.00000000       0.00000000 </v>
     <v>       0.00000000      20.00000000       0.00000000 </v>
     <v>       0.00000000       0.00000000      20.00000000 </v>
    </varray>
    <i name="volume">   8000.00000000 </i>
    <varray name="rec_basis" >
     <v>       0.05000000       0.00000000       0.00000000 </v>
     <v>       0.00000000       0.05000000       0.00000000 </v>
     <v>       0.00000000       0.00000000       0.05000000 </v>
    </varray>
   </crystal>
   <varray name="positions" >
    <v>       0.49986536       0.50000000       0.47062130 </v>
    <v>       0.52901113       0.50000000       0.50018226 </v>
    <v>       0.47312350       0.50000000       0.52519641 </v>
   </varray>
  </structure>
  <varray name="forces" >
   <v>     -93.72070083       0.00000000     -93.35694678 </v>
   <v>      94.11764764       0.00000000      94.06475796 <  <energy>
   <i name="e_fr_energy">    -16.47558931 </i>
   <i name="e_wo_entrp">    -16.47558931 </i>
   <i name="e_0_energy">     -0.00000000 </i>
  </energy>
  <time name="totalsc">   36.92   37.38</time>
 </calculation>
i>
  </energy>
  <time name="totalsc">   36.73   36.80</time>
 </calculation>
 -7.60780085 </i>
   <i name="e_0_energy">     -0.00000000 </i>
  </energy>
  <time name="totalsc">   37.42   37.52</time>
 </calculation>
name="e_0_ener  </energy>
  <time name="totalsc">   37.14   37.17</time>
 </calculation>
05</time>
 </calculation>
 <calculation>
  <scstep>
   <time name="dav">    2.76     <time name="dav">    3.71    3.71</time>
   <time name="total">    7.78    7.78</time>
   <energy>
    <i name="alphaZ">      0.05489739 </i>
    <i name="ewald">    315.70986355 </i>
    <i name="hartreedc">   -651.96302348 </i>
    <i name="XCdc">     38.83218261 </i>
    <i name="pawpsdc">    371.32690456 </i>
    <i name="pawaedc">   -375.85670722 </i>
    <i name="eentropy">     -0.00000000 </i>
    <i name="bandstr">   -133.99103840 </i>
    <i name="atom">    424.98939091 </i>
    <i name="e_fr_energy">    -10.89753008 </i>
    <i name="e_wo_entrp">    -10.89753008 </i>
    <i name="e_0_energy">    -10.89753008 </i>
   </e   <time name="dav">    4.19     <time name="dav">    4.72    4.72</time>
   <time name="total">    8.00    8.00</time>
   <energy>
    <i name="e_fr_energy">    -10.62506104 </i>
    <i name="e_wo_entrp">    -10.62506104 </i>
    <i name="e_0_energy">    -10.62506104 </i>
   </e   <time name="dav">    3.71     <time name="dav">    4.56    4.56</time>
   <time name="total">    8.77    8.77</time>
   <energy>
    <i name="e_fr_energy">    -10.59441497 </i>
    <i name="e_wo_entrp">    -10.59441497 </i>
    <i name="e_0_energy">    -10.59441497 </i>
   </e   <time name="   <time name="   <time name="dav">    4.28    4.28</time>
   <time name="total">    8.45    8.45</time>
   <energy>
    <i name="e_fr_energy">    -10.59412246 </i>
    <i name="e_wo_entrp">    -10.59412246 </i>
    <i name="e_0_energy">    -10.59412246 </i>
   </e   <time name="dav">    3.51     <time name="dav">    4.05    4.05</time>
   <time name="total">    8.18    8.18</time>
   <energy>
    <i name="e_fr_energy">    -10.59398188 </i>
    <i name="e_wo_entrp">    -10.59398188 </i>
    <i name="e_0_energy">    -10.59398188 </i>
   </e   <time name="   <time name="   <time name="dav">    3.03    3.03</time>
   <time name="total">    6.73    6.73</time>
   <energy>
    <i name="e_fr_energy">    -10.59399227 </i>
    <i name="e_wo_entrp">    -10.59399227 </i>
    <i name="e_0_energy">    -10.59399227 </i>
   </energy>
  </scst   <time name="   <time name="dav">    2.47    2.47</time>
   <time name="total">    4.73    4.73</time>
   <energy>
    <i name="alphaZ">      0.05489739 </i>
    <i name="ewald">    315.70986355 </i>
    <i name="hartreedc">   -641.41003639 </i>
    <i name="XCdc   <time name="   <time name="dav">    2.32    2.32</time>
   <time name="total">    4.91    4.97</time>
   <energy>
    <i name="e_fr_energy">    -12.42712624 </i>
    <i name="e_wo_entrp">    -12.42712624 </i>
    <i name="e_0_energy">    -12.42712624 </i>
   </energy>
  </scst   <time name="   <time name="dav">    1.70    1.70</time>
   <time name="total">    4.32    4.32</time>
   <energy>
    <i name="e_fr_energy">    -12.42739344 </i>
    <i name="e_wo_entrp">    -12.42739344 </i>
    <i name="e_0_energy">    -12.42739344 </i>
   </energy>
  </scst   <time name="   <time name="dav">    1.92    1.92</time>
   <time name="total">    4.35    4.35</time>
   <energy>
    <i name="e_fr_energy">    -12.42752999 </i>
    <i name="e_wo_entrp">    -12.42752999 </i>
    <i name="e_0_energy">    -12.42752999 </i>
   </energy>
  </scst   <time name="   <time name="dav">    1.42    1.42</time>
   <time name="total">    3.66    3.66</time>
   <energy>
    <i name="e_fr_energy">    -12.42759141 </i>
    <i name="e_wo_entrp">    -12.42759141 </i>
    <i name="e_0_energy">    -1  <energy>
   <i name="e_fr_energy">    -17.12915816 </i>
   <i name="e_wo_entrp">    -17.12915816 </i>
   <i name="e_0_energy">     -0.00000000 </i>
  </energy>
  <time name="totalsc">   83.62   83.65</time>
 </calculation>
lsc">   83.63   83.65</time>
 </calculation>
gy">    -12.42764193 </i>
   </energy>
  </scst   <time name="   <time name="dav">    1.42    1.42</time>
   <time name="total">    3.70    3.70</time>
   <energy>
    <i name="e_fr_energy">    -12.42766271 </i>
    <i name="e_wo_entrp">    -12.42766271 </i>
    <i name="e_0_energy">    -12.42766271 </i>
   </energy>
   <energy>
   <i name="e_fr_energy">    -10.59400183 </i>
   <i name="e_wo_entrp">    -10.59400183 </i>
   <i name="e_0_energy">     -0.00000000 </i>
  </energy>
  <time name="totalsc">   83.65   83.65</time>
 </calculation>
treedc">   -641.14246121 </i>
    <i name="XCdc">     38.41824913 </i>
    <i name="pawpsdc">    326.50317645 </i>
    <i name="pawaedc">   -330.58832868 </i>
    <i name="eentropy">     -0.00000000 </i>
    <i name="bandstr">   -145.26783264 </i>
    <i name="atom">    424.98939091 </i>
    <i name="e_fr_energy">    -12.42766921 </i>
    <i name="e_wo_entrp">    -12.42766921 </i>
    <i name="e_0_energy">    -12.42766921 </i>
   </energy>
  </scstep>
  <structure>
   <crystal>
    <varray name="basis" >
     <v>      20.00000000       0.00000000       0.00000000 </v>
     <v>       0.00000000      20.00000000       0.00000000 </v>
     <v>       0.00000000       0.00000000      20.00000000 </v>
    </varray>
    <i name="volume">   8000.00000000 </i>
    <varray name="rec_basis" >
     <v>       0.05000000       0.00000000       0.00000000 </v>
     <v>       0.00000000       0.05000000       0.00000000 </v>
     <v>       0.00000000       0.00000000       0.05000000 </v>
    </varray>
   </crystal>
   <varray name="positions" >
    <v>       0.49923793       0.50000000       0.45962146 </v>
    <v>       0.52025667       0.50000000       0.50165333 </v>
    <v>       0.48185589       0.50000000       0.53342620 </v>
   </varray>
  </structure>
  <varray name="forces" >
   <v>     -25.88115685       0.00000000     -56.10919566 </v>
   <v>      26.17151417       0.00000000      53.48372233 </v>
   <v>   <energy>
   <i name="e_fr_energy">    -12.53663819 </i>
   <i name="e_wo_entrp">    -12.53663819 </i>
   <i name="e_0_energy">     -0.00000000 </i>
  </energy>
  <time name="totalsc">   83.64   83.65</time>
 </calculation>
>       4.31837293       0.00000000       9.76060652 </v>
  </varray>
  <energy>
   <i name="e_fr_energy">    -12.42766921 </i>
   <i name="e_wo_entrp">    -12.42766921 </i>
   <i name="e_0_energy">     -0.00000000 </i>
  </energy>
  <time name="totalsc">   83.49   83.64</time>
 </calculation>
 <calculation>
  <scstep>
   <time name="dav">    2.73    2.76</tim   <time name="   <time name="dav">    3.82    <time name="   <time name="total">    7.83    7.83</time>
   <energy>
    <i name="alphaZ">      0.05489739 </i>
    <i name="ewald">    277.63195558 </i>
    <i name="hartreedc">   -623.62979070 </i>
    <i name="XCdc">     37.65326465 </i>
    <i name="pawpsdc">    323.01788867 </i>
    <i name="pawaedc">   -327.04343454 </i>
    <i name="eentropy">     -0.00000000 </i>
    <i name="bandstr">   -129.11275534 </i>
    <i name="atom">    424.98939091 </i>
    <i name="e_fr_energy">    -16.43858337 </i>
    <i name="e_wo_entrp">    -16.43858337 </i>
    <i name="e_0_energy">     <time name="dav">    4.17    4.22</tim   <time name="   <time name="dav">    4.20    <time name="   <time name="total">    8.04    8.04</time>
   <energy>
    <i name="e_fr_energy">    -16.13704212 </i>
    <i name="e_wo_entrp">    -16.13704212 </i>
    <i name="e_0_energy">     <time name="   <time name="dav">    4.68    <time nam   <time name="dav">    4.66    4.66</time>
   <time name="total">    8.91    8.91</time>
   <energy>
    <i name="e_fr_energy">    -16.09250141 </i>
    <i name="e_wo_entrp">    -16.09250141 </i>
    <i name="e_0_energy">     <time name="   <time name="dav">    3.60    <time nam   <time name="dav">    4.20    4.20</time>
   <time name="total">    8.38    8.38</time>
   <energy>
    <i name="e_fr_energy">    -16.09212825 </i>
    <i name="e_wo_entrp">    -16.09212825 </i>
    <i name="e_0_energy">     <time name="dav">    3.53    3.57</tim      <time nam   <time name="dav">    3.74    3.74</time>
   <time name="total">    7.79    7.80</time>
   <energy>
    <i name="e_fr_energy">    -16.09205476 </i>
    <i name="e_wo_entrp">    -16.09205476 </i>
    <i name="e_0_energy">     <time name="dav">    3.52    3.55</tim      <time nam   <time name="dav">    3.35    3.35</time>
   <time name="total">    7.40    7.40</time>
   <energy>
    <i name="e_fr_energy">    -16.09204008 </i>
    <i name="e_wo_entrp">    -16.09204008 </i>
    <i name="e_0_energy">     <time name="dav">    2.57    2.59</tim      <time nam   <time name="dav">    3.44    3.44</time>
   <time name="total">    7.41    7.41</time>
   <energy>
    <i name="e_fr_energy">    -16.09207730 </i>
    <i name="e_wo_entrp">    -16.09207730 </i>
    <i name="e_0_energy">     <time name="dav">    3.54    3.57</tim      <time nam   <time name="dav">    3.91    3.91</time>
   <time name="total">    7.81    7.81</time>
   <energy>
    <i name="e_fr_energy">    -16.09214716 </i>
    <i name="e_wo_entrp">    -16.09214716 </i>
    <i name="e_0_energy">    -16.09214716    <time name="dav">    4.66    <time nam   <time name="dav">    2.93    2.93</time>
   <time name="total">    6.86    6.86</time>
   <energy>
    <i name="e_fr_energy">    -16.09221437 </i>
    <i name="e_wo_entrp">    -16.09221437 </i>
    <i name="e_0_energy">     <time name="   <time name="dav">    3.69    <time nam   <time name="dav">    3.90    3.90</time>
   <time name="total">    8.05    8.05</time>
   <energy>
    <i name="e_fr_energy">    -16.09228008 </i>
    <i name="e_wo_entrp">    -16.09228008 </i>
    <i name="e_0_energy">    -16.09228008 </i>
   </energy>
  </scstep>
  <scstep>
   <time name="dav">    2.83    2.83</time>
   <time name="total">    6.58    6.58</time>
   <energy>
    <i name="e_fr_energy">    -16.09231275 </i>
    <i name="e_wo_entrp">    -16.09231275 </i>
    <i name="e_0_energy">    -16.09231275 </i>
   </energy>
  </scstep>   <time nam   <time name="dav">    2.70    2.70</time>
   <time name="total">    6.27    6.27</time>
   <energy>
    <i name="e_fr_energy">    -16.09234776 </i>
    <i name="e_wo_entrp">    -16.09234776 </i>
    <i name="e_0_energy">     <time name="   <time name="dav">    4.58    4.58</tim   <time name="dav">    4.86    4.86</time>
   <time name="total">    8.35    8.35</time>
   <energy>
    <i name="e_fr_energy">    -16.09235985 </i>
    <i name="e_wo_entrp">    -16.09235985 </i>
    <i name="e_0_energy">    -16.09235985 </i>
   </energy>
  </scstep>   <time nam   <time name="dav">    1.85    1.85</time>
   <time name="total">    4.84    4.84</time>
   <energy>
    <i name="alphaZ">      0.05489739 </i>
    <i name="ewald">    277.63195558 </i>
    <i name="hartreedc">   -612.13045   <time name="dav">    1.74    1.76</time>
   <time name="total">    4.69    4.74</time>
   <energy>
    <i name="alphaZ">      0.05489739 </i>
    <i name="ewald">    283.24491784 </i>
    <i name="hartreedc">   -617.29843047 </i>
    <i name="XCdc">     37.42891538 </i>
    <i name="pawpsdc">    282.69324100 </i>
    <i name="pawaedc">   -286.37708569 </i>
    <i name="eentropy">     -0.00000000 </i>
    <i name="bandstr">   -14  <structure>
   <crystal>
    <varray name="basis" >
     <v>      20.00000000       0.00000000       0.00000000 </v>
     <v>       0.00000000      20.00000000       0.00000000 </v>
     <v>       0.00000000       0.000000  <structure>
   <crystal>
    <varray name="basis" >
     <v>      20.00000000       0.00000000       0.00000000 </v>
     <v>       0.00000000      20.00000000       0.00000000 </v>
   <energy>
   <i name="e_fr_energy">    -18.13781044 </i>
   <i name="e_wo_entrp">    -18.13781044 </i>
   <i name="e_0_energy">     -0.00000000 </i>
  </energy>
  <time name="totalsc">  112.11  112.15</time>
 </calculation>
       0.00000000       0.05000000       0.00000000 </v>
     <v>       0.00000000       0.00000000       0.05000000 </v>
    </varray>
   </crystal>
   <varray name="positions" >
    <v>       0.49806706       0.50000000       0.45743708 </v>
    <v>       0.52172251       0.50000000       0.50399816 </v>
   <energy>
   <i name="e_fr_energy">    -17.69875612 </i>
   <i name="e_wo_entrp">    -17.69875612 </i>
   <i name="e_0_energy">     -0.00000000 </i>
  </energy>
  <time name="totalsc">  112.11  112.15</time>
 </calculation>
 20.79665972 </v>
   <v>      -0.93395635       0.00000000       2.56662072 </v>
  <energy>
   <i name="e_fr_energy">    -16.65023128 </i>
   <i name="e_wo_entrp">    -16.65023128 </i>
   <i name="e_0_energy">     -0.00000000 </i>
  </energy>
  <time name="t  <time name="totalsc">  112.14  112.15</time>
 </calculation>
 <energy>
   <i name="e_fr_energy">    -16.67811085 </i>
   <i name="e_wo_entrp">    -16.67811085 </i>
   <i name="e_0_energy">     -0.00000000 </i>
  </energy>
  <time name="t  <scstep>
   <time name="dav">    2.   <time name="dav   <time name="total">       <time name="total">    6.66    6.6   <time name="total">       <time name="total">    6.93    6.93</time>
   <energy>
    <i name="alphaZ">      0.05489739 </i>
    <i name="ewald">    257.38056550 </i>
    <i name="hartreedc">   -601.36359491 </i>
    <i name="XCdc">     36.70378531 </i>
    <i name="pawpsdc">    269.66561203 </i>
    <i name="pawaedc">   -273.19490680 </i>
    <i name="eentropy">     -0.00000000 </i>
    <i name="bandstr">   -131.73724449 </i>
    <i name="atom">    424.98939091 </i>
    <i name="e_fr_energy">    -17.50149505 </i>
    <i name="e_wo_entrp">    -17.50149505   <time name="dav">    4.17    4.17</time>
   <time name="total">    8.00    8.01</time>
   <energy>
    <i name="e_fr_energy">    -   <time name="total">    8.30    8.30</time>
   <energy>
    <i name="e_fr_energy">    -17.43054180 </i>
    <i name="e_wo_entrp">    -17.43054180   <time name="dav">    4.   <time name="dav   <time name="total">       <time name="tota   <time name="dav">    4.77    4.77</time>
   <time name="total">    8.67    8.67</time>
   <energy>
    <i name="e_fr_energy">    -17.41608636 </i>
    <i name="e_wo_entrp">    -17.41608636   <time name="dav">    3.   <time name="dav">    3.71    3.72<   <tim   <time name="tota   <time name="dav">    3.68    3.68</time>
   <time name="total">    7.83    7.83</time>
   <energy>
    <i name="e_fr_energy">    -17.41627745 </i>
    <i name="e_wo_entrp">    -17.41627745   <time name="dav">    3.   <time name="dav   <time name="tota   <tim   <time name="tota   <time name="dav">    3.31    3.31</time>
   <time name="total">    7.46    7.46</time>
   <energy>
    <i name="e_fr_energy">    -17.41628306 </i>
    <i name="e_wo_entrp">    -17.41628306   <time name="dav">    2.   <time name="dav">    3.64    3.64<   <time name="dav">    4.   <time name="dav">    3.20    3.20</time>
   <time name="total">    7.38    7.39</time>
   <energy>
    <i name="e_fr_energy">    -17.41631296 </i>
    <i name="e_wo_entrp">    -17.41631296   <time name="dav">    2.   <time name="dav">    2.67    2.67<   <time name="dav">    2.   <time name="dav">    4.31    4.31</time>
   <time name="total">    8.38    8.38</time>
   <energy>
    <i name="e_fr_energy">    -17.41634632 </i>
    <i name="e_wo_entrp">    -17.41634632 </i>
    <i name="e_0_ene   <time name="dav">    2.69    2.69<   <time name="dav">    2.   <time name="dav">    3.39    3.39</time>
   <time name="total">    7.23    7.23</time>
   <energy>
    <i name="e_fr_energy">    -17.41637729 </i>
    <i name="e_wo_entrp">    -17.41637729 </i>
    <i name="e_0_energy">    -17.41637729 </i>
   </energ   <time name="dav">    3.   <time name="dav">    3.39    3.39</time>
   <time name="total">    7.48    7.48</time>
   <energy>
    <i name="e_fr_energy">    -17.41642078 </i>
    <i name="e_wo_entrp">    -17.41642078 </i>
    <i name="e_0_ene   <time name="dav">    4.44    4.44<   <tim   <time name="tota   <time name="dav">    4.72    4.72</time>
   <time name="total">    8.66    8.66</time>
   <energy>
    <i name="e_fr_energy">    -17.41644386 </i>
    <i name="e_wo_entrp">    -17.41644386 </i>
    <i name="e_0_energy">    -17.41644386 </i>
   </energ   <time name="dav">    4.   <time name="dav">    3.55    3.55</time>
   <time name="total">    7.08    7.08</time>
   <energy>
    <i name="e_fr_energy">    -17.41646190 </i>
    <i name="e_wo_entrp">    -17.41646190 </i>
    <i name="e_0_energy">    -17.41646190 </i>
   </energy>
  </scstep>
  <scstep>
   <time name="dav">    3.08    3.08</time>
   <time name="total">    6.45    6.45</time>
   <energy>
    <i name="e_fr_energy">    -17.41647844 </i>
    <i name="e_wo_entrp">    -17.41647844 </i>
    <i name="e_0_energy">    -17.41647844 </i>
   </energ   <time name="dav">    4.   <time name="dav">    4.13    4.13</time>
   <time name="total">    7.36    7.36</time>
   <energy>
    <i name="alphaZ">      0.05489739 </i>
    <i name="ewald">    257.38056550 </i>
    <i name="hartreedc">   -595.47772662 </i>
    <i name="XCdc">     <time name="dav">    2.48    2.51</time>
   <time name="total">    6.20    6.26</time>
   <energy>
    <i name="e_fr_energy">    -17.90373153 </i>
    <i name="e_wo_entrp">    -17.90373153 </i>
    <i name="e_0_energy">    -17.90373153 </i>
   </energy>
  </scstep>
  <scstep>
   <time name="dav">    2.27    2.29</time>
   <time name="total">    4.45    4.49</time>
   <energy>
    <i name="alphaZ">      0.05489739 </i>
    <i name="ewald">    264.40468355 </i>
    <i name="hartreedc">   -602.09795055 </i>
    <i name="XCdc">     36.81923118 </i>
    <i name="pawpsdc">    257.89227362 </i>
    <i name="pawaedc">   -261.37289807 </i>
    <i name="eentropy">     -0.00000000 </i>
    <i name="bandstr">   -138.59336480 </i>
    <i na  <energy>
   <i name="e_fr_energy">    -18.64042191 </i>
   <i name="e_wo_entrp">    -18.64042191 </i>
   <i name="e_0_energy">     -0.00000000 </i>
  </energy>
  <time name="totalsc">  111.65  111.74</time>
 </calculation>

    <varray name="basis" >
     <v>      20.00000000       0.00000000       0.00000000 </v>
     <v>       0.00000000      20.00000000       0.00000000 </v>
     <v>       0.00000000       0.00000000      20.00000000 </v>
    </varray>
    <i name="volume">   8000.00000000 </i>
    <varray name="rec_basis" >
     <v>       0.0500000  <energy>
   <i name="e_fr_energy">    -17.75107361 </i>
   <i name="e_wo_entrp">    -17.75107361 </i>
   <i name="e_0_energy">     -0.00000000 </i>
  </energy>
  <time name="totalsc">  111.66  111.74</time>
 </calculation>
" >
    <v>       0.49725598       0.50000000       0.45587207 </v>
    <v>        <energy>
   <i name="e_fr_energy">    -18.24341584 </i>
   <i name="e_wo   <i name="e_fr_energy">    -   <i name="e_0_e   <i name="e_wo_entrp">    -  </energy>
  <time name="totalsc">  111.65  111.74</time>
 </calculation>
  <time name="totalsc">  111.73  111.74</time>
 </calculation>
8 </v>
   <v>      -1.12395503       0.00000000       2.37523392 </v>
  </varray>
  <varray name="stress" >
   <v>       0.57272912       0.00000000       0.64848288 </v>
   <v>       0.00000000      -0.01426656       0.00000000 </v>
   <v>       0.64848288       0.00000000       2.28357103 </v>
  </varray>
  <energy>
   <i name="e_fr_energy">    -17.90373677 </i>
   <i name="e_wo_entrp">    -17.90373677 </i>
   <i name="e_0_energy">     -0.00000000 </i>
  </energy>
  <time name="totalsc">  1   <time name="dav">    2.85    2.86</time>
   <time name="total">    6.69    6.69</time>
   <energy>
    <   <time name="   <time name="total">    6.92    6.92</time>
   <energy>
    <i name="alphaZ">      0.05489739 </i>
    <i name="ewald">    244.18984858 </i>
    <i name="hartreedc">   -587.93229672 </i>
    <i name="XCdc">     36.15403584 </i>
    <i name="pawpsdc">    242.95854791 </i>
    <i name="pawaedc">   -246.26785287 </i>
    <i name="eentropy">     -0.00000000 </i>
    <i name="bandstr">   -131.93314953 </i>
    <i name="atom">    424.98939091 </i>
    <i name="e_fr_energy">    -17.78657848 </i>
    <i name="e_wo_entrp">    -17.78657848 </i>
    <   <time name="dav">    3.60    3.60</time>
   <time name="total">    7.51    7.51</time>
   <energy>
    <   <time name="   <time name="total">    7.85    7.85</time>
   <energy>
    <i name="e_fr_energy">    -17.76158521 </i>
    <i name="e_wo_entrp">    -17.76158521 </i>
    <   <time name="dav">    3.60    3.60</time>
   <time name="tota   <time name="   <time name="dav">    4.64    <time name="   <time name="total">    8.67    8.67</time>
   <energy>
    <i name="e_fr_energy">    -17.75570165 </i>
    <i name="e_wo_entrp">    -17.75570165 </i>
    <   <time name="dav">    2.58    2.58</time>
   <time name="tota   <time name="   <time name="dav">    3.82    3.82</time>
   <time name="total">    7.94    7.94</time>
   <energy>
    <i name="e_fr_energy">    -17.75578176 </i>
    <i name="e_wo_entrp">    -17.75578176 </i>
    <   <time name="dav">    3.53    3.53</time>
   <time name="tota   <time name="   <time name="dav">    3.32    3.32</time>
   <time name="total">    7.50    7.50</time>
   <energy>
    <i name="e_fr_energy">    -17.75582845 </i>
    <i name="e_wo_entrp">    -17.75582845 </i>
    <   <time name="dav">    2.54    2.54</time>
   <time name="tota   <time name="   <time name="dav">    3.84    3.84</time>
   <time name="total">    7.97    7.97</time>
   <energy>
    <i name="e_fr_energy">    -17.75584941 </i>
    <i name="e_wo_entrp">    -17.75584941 </i>
    <   <time name="dav">    3.57    3.58</time>
   <time name="tota   <time name="   <time name="dav">    3.65    3.65</time>
   <time name="total">    7.88    7.88</time>
   <energy>
    <i name="e_fr_energy">    -17.75587667 </i>
    <i name="e_wo_entrp">    -17.75587667 </i>
    <i name="e_0_energy">    -17.75587667 </i>
   </energy>
  </scst   <time name="   <time name="dav">    3.01    3.01</time>
   <time name="total">    6.62    6.62</time>
   <energy>
    <i name="e_fr_energy">    -17.75590262 </i>
    <i name="e_wo_entrp">    -17.75590262 </i>
    <i name="e_0_energy">    -17.75590262 </i>
   </energy>
  </scst   <time name="   <time name="dav">    3.01    3.01</time>
   <time name="total">    6.63    6.63</time>
   <energy>
    <i name="e_fr_energy">    -17.75593161 </i>
    <i name="e_wo_entrp">    -17.75593161 </i>
    <i name="e_0_energy">    -17.75593161 </i>
   </energy>
  </scst   <time name="   <time name="dav">    3.30    3.30</time>
   <time name="total">    7.09    7.09</time>
   <energy>
    <i name="e_fr_energy">    -17.75594655 </i>
    <i name="e_wo_entrp">    -17.75594655 </i>
    <i name="e_0_energy">    -17.75594655 </i>
   </energy>
  </scst   <time name="   <time name="dav">    4.34    4.34</time>
   <time name="total">    8.15    8.15</time>
   <energy>
    <i name="e_fr_energy">    -17.75595709 </i>
    <i name="e_wo_entrp">    -17.75595709 </i>
    <i name="e_0_energy">    -17.75595709 </i>
   </energy>
  </scst   <time name="   <time name="dav">    2.99    2.99</time>
   <time name="total">    5.88    5.88</time>
   <energy>
    <i name="alphaZ">      0.05489739 </i>
    <i name="ewald">    244.18984858 </i>
    <i name="hartreedc">   -584.26208425 </i>
    <i name="XCdc">     35.96291   <time name="dav">    3.78    3.82</time>
   <time name="total">    7.84    7.91</time>
   <energy>
    <i name="e_fr_energy">    -18.26325628 </i>
    <i name="e_wo_entrp">    -  <energy>
   <  <energy>
   <i name="e_fr_energy">    -18.91282903 </i>
   <i name="e_wo_entrp">    -18.91282903 </i>
   <i name="e_0_energy">     -0.00000000 </  <time name="t  <time name="totalsc">  105.98  106.04</time>
 </calculation>
</i>
    <i name="ewald">    251.19067050 </i>
    <i name="hartreedc">   -591.11625175 </i>
    <i name="XCdc">     36.38664620 </i>
    <i name="pawpsdc">    241.84686467 </i>
    <i name="pawaedc">   -245.23198947 </i>
    <i name="eentropy">     -0.00000000 </i>
    <i name="bandstr">   -136.38349367 </i>
    <i name="atom">    424.98939091 </i>
    <i name="e_fr_energy">    -18.26326523 </i>
    <i name="e_wo_entrp">    -18.26326523 </i>
    <i name="e_0_energy">    -18.26326523 </i>
   </energy>
  </scstep>
  <structure>
   <crystal>
    <varray name="basis" >
     <v>      20.00000000       0.00000000       0.00000000 </v>
     <v>       0.00000000      20.00000000       0.00000000 </v>
     <v>       0.00000000       0.00000000      20.00000000 </v>
    </varray>
    <i name="volume">   8000.00000000 </i>
    <varray name="rec_basis" >
     <v>       0.05000000       0.00000000       0.00000000 </v>
     <v>       0.00000000       0.05000000       0.00000000 </v>
     <v>       0.00000000       0.00000000       0.05000000 </v>
    </varray>
   </crystal>
   <varray name="positions" >
    <v>       0.49666879       0.50000000       0.45464532 </v>
    <v>       0.52363318       0.50000000       0.50667701 </v>
   <energy>
   <i name="e_fr_energy">    -17.75596560 </i>
   <i name="e_wo_entrp">    -17.75596560 </i>
   <i name="e_0_energy">     -0.00000000 </i>
  </energy>
  <time name="totalsc">  106.01  106.04</time>
 </calculation>
  1.60201676 </v>
   <v>      -0.9972131  <energy>
   <i name="e_fr_energy">    -18.57317560 </i>
   <i name="e_wo_entrp">    -18.57317560 </i>
   <i name="e_0_energy">     -0.00000000 </i>
  </energy>
  <time name="totalsc">  106.00  106.04</time>
 </calculation>
690       0.00000000       0.97057659 </v>
  </varray>
  <energy>
   <i name="e_fr_energy">    -18.26326523 </i>
   <i name="e_wo_entrp">    -18.26326523 </i>
   <i name="e_0_energy">     -0.00000000 </i>
  </energy>
  <time name="totalsc">  1   <time name="dav">    2.81    2.81</time>
   <time name="total">    6.71    6.72</time>
   <energy>
    <i name="alphaZ">      0.054897   <time name="total">    6.84    6.84</time>
   <energy>
    <i name="alphaZ">      0.05489739 </i>
    <i name="ewald">    237.32347430 </i>
    <i name="hartreedc">   -580.16553587 </i>
    <i name="XCdc">     35.83332650 </i>
    <i name="pawpsdc">    226.95882508 </i>
    <i name="pawaedc">   -230.14616350 </i>
    <i name="eentropy">     -0.00000000 </i>
    <i name="bandstr">   -132.63993706 </i>
    <i name="atom">    424.98939091 </i>
    <i name="e_fr_energy">    -17.79172224 </i>
    <i name="e_wo_entrp">    -17.7917   <time name="dav">    3.24    3.24</time>
   <time name="total">    7.10    7.10</time>
      <time name="dav">    3.83    3.83</time>
   <time name="total">    7.83    7.83</time>
   <energy>
    <i name="e_fr_energy">    -17.78619412 </i>
    <i name="e_wo_entrp">    -17.7861   <time name="dav">    3.   <time name="dav   <time   <time name="      <time name="total">    <time name="dav">    4.28    4.28</time>
   <time name="total">    7.88    7.88</time>
   <energy>
    <i name="e_fr_energy">    -17.78435607 </i>
    <i name="e_wo_entrp">    -17.7843   <time name="dav">    3.   <time name="dav   <time   <time name="dav">    4.16    4.16</tim      <time name="total">    7.85    7.85</t   <time name="total">    7.42    7.42</time>
   <energy>
    <i name="e_fr_energy">    -17.78439069 </i>
    <i name="e_wo_entrp">    -17.7843   <time name="dav">    3.   <time name="dav   <time   <time name="dav">    2.80    2.80</tim   <time name="dav">    3.39    3.39</time>
   <time name="total">    7.47    7.47</time>
   <energy>
    <i name="e_fr_energy">    -17.78441119 </i>
    <i name="e_wo_entrp">    -17.7844   <time name="dav">    3.   <time name="dav">    3.   <time name="dav   <time name="total">    <time name="dav">    3.95    3.95</time>
   <time name="total">    8.15    8.15</time>
   <energy>
    <i name="e_fr_energy">    -17.78442436 </i>
    <i name="e_wo_entrp">    -17.78442436 </i>
    <i name="e_0   <time name="dav">    2.   <time name="   <time name="dav">    3.   <time name="dav">    2.86    2.86</time>
   <time name="total">    6.92    6.92</time>
   <energy>
    <i name="e_fr_energy">    -17.78443539 </i>
    <i name="e_wo_entrp">    -17.78443539 </i>
    <i name="e_0_energy">    -17.78443539    <time name="   <time name="dav">    2.   <time name="dav">    2.83    2.83</time>
   <time name="total">    6.72    6.72</time>
   <energy>
    <i name="e_fr_energy">    -17.78444678 </i>
    <i name="e_wo_entrp">    -17.78444678 </i>
    <i name="e_0_energy">    -17.78444678    <time name="   <time name="dav">    3.   <time name="dav">    2.84    2.84</time>
   <time name="total">    6.68    6.68</time>
   <energy>
    <i name="e_fr_energy">    -17.78445913 </i>
    <i name="e_wo_entrp">    -17.78445913 </i>
    <i name="e_0_energy">    -17.78445913    <time name="   <time name="dav">    3.   <time name="dav">    2.80    2.80</time>
   <time name="total">    5.94    5.94</time>
   <energy>
    <i name="alphaZ">      0.05489739 </i>
    <i name="ewald">    237.32347430 </i>
    <i name="hartreedc">   -578.29731517 </i>
    <i   <time name="   <time name="dav">    3.27    3.28</time>
   <time name="total">    6.97    6.99</time>
   <energy>
    <i name="e_fr_energy">    -18.32400751 </i>
    <i name="e_wo_entrp">    -18.32400751 </i>
    <i name="e_0_energy">    -18.32400751 </i>
   </energy>
  </scst   <time name="   <time name="dav">    2.92    2.92</time>
   <time name="total">    6.10    6.10</time>
   <energy>
    <i name="alphaZ">      0.05489739 </i>
    <i name="ewald">    243.322  <energy>
   <i name="e_fr_energy">    -18.13444873 </i>
   <i name="e_wo_entrp">    -18.13444873 </i>
   <i name="e_0_energy">     -0.00000000 </i>
  </energy>
  <time name="totalsc">   91.74   91.74</time>
 </calculation>
 </i>
    <i name="bandstr">   -134.97064028 </i>
    <i name="atom">    424.98939091 </i>
    <i name="e_fr_energy">    -18.32401677 </i>
    <i name="e_wo_entrp">    -18.32401677 </i>
    <i name="e_0_energy">    -18.32401677 </i>
   </energ  <structure>
   <structure>
   <crystal>
    <varray name="basis" >
     <v>      20.00000000       0.00000000       0.00000000 </v>
     <v>       0.00000000      20.00000000       0.00000000 </v>
     <v>       0.00000000       0.00000000      20.00000000 </v>
    </varray>
    <i name="volume">   8000.00000000 </i>
    <varray name="rec_basis" >
     <v>       0.05000000       0.00000000       0.00000000 </v>
     <v>       0.00000000       0.05000000       0.00000000 </v>
     <v>       0.00000000       0.00000000       0.05000000 </v>
    </varray>
   </crystal>
   <varray name="positions" >
    <v>       0.49636688       0.50000000       0.45386030 </v>
    <v>    <energy>
   <i name="e_fr_energy">    -19.09328254 </i>
   <i name="e_wo_entrp">    -19.09328254 </i>
   <i name="e_0_energy">     -0.00000000 </i>
  </energy>
  <time name="totalsc">   91.70   91.74</time>
 </calculation>
gy>
  <time name="totalsc">   91.73   91.74</time>
 </calculation>
1 </v>
   <v>      -0.65212801       0.00000000       1.68802074 </v>
  </varray>
  <varray name="stress" >
   <v>       0.03021052       0.00000000      -0.21018325 </v>
   <v>       0.00000000      -0.01279289       0.00000000 </v>
   <v>      -0.21018325       0.00000000       0.32808962 </  <energy>
   <i name="e_fr_energy">    -18.77588348 </i>
   <i name="e_wo_entrp">    -18.77588348 </i>
   <i name="e_0_energy">     -0.00000000 </i>
  </energy>
  <time name="totalsc">   91.71   91.73</   <time name="dav">    3.64    3.64</time>
   <time name="total">    7.56    7.56</time>
   <energy>
    <i name="alphaZ">      0.05489739 </i>
      <time name="total">    7.74    7.74</time>
   <energy>
    <i name="alphaZ">      0.05489739 </i>
    <i name="ewald">    235.22228214 </i>
    <i name="hartreedc">   -577.01404811 </i>
    <i name="XCdc">     35.69698961 </i>
    <i name="pawpsdc">    219.10628667 </i>
    <i name="pawaedc">   -222.24230703 </i>
    <i name="eentropy">     -0.00000000 </i>
    <i name="bandstr">   -133.58603706 </i>
    <i name="atom">    424.98939091 </i>
    <i name="e_fr_energy">    -17.77254548 </i>
    <i name="e_wo_entrp">    <time name="dav">    3.17    3.17</time>
   <time name="total">    6.73    6.73</time>
   <energy>
    <i name="e_fr_energy">    -18.17610913 </i   <time name="total">    6.65    6.65</time>
   <energy>
    <i name="e_fr_energy">    -17.77194399 </i>
    <i name="e_wo_entrp">    <time name="dav">    2.64    2.64</time>
   <time name="total">    6.46    6.46</time>
   <energy>
        <time name="total">    7.78    7.81</t   <time name="total">    7.44    7.44</time>
   <energy>
    <i name="e_fr_energy">    -17.77171167 </i>
    <i name="e_wo_entrp">    <time name="dav">    3.19    3.19</time>
   <time name="tota   <time name="   <time name="dav">    3.   <time name="dav">    4.36    4.36</time>
   <time name="total">    7.67    7.67</time>
   <energy>
    <i name="alphaZ">      0.05489739 </i>
    <i name="ewald">    235.222   <time name="dav">    3.76    3.76</time>
   <time name="tota   <time name="dav">    3.80    3.80</time>
   <time name="   <time name="total">    6.73    6.73</time>
   <energy>
    <i name="e_fr_energy">    -18.88296607 </i>
    <i name="e_wo_entrp">    -18.88296607 </i>
    <   <time name="dav">    3.31    3.31</time>
   <time name="total">    7.01       <time name="dav">    2.57    2.57</time>
   <time name="total">    6.22    6.22</time>
   <energy>
    <i name="e_fr_energy">    -18.88299667 </i>
    <i name="e_wo_entrp">    -18.88299667 </i>
    <   <time name="dav">    1.43    1.43</time>
   <time name="total">    4.50       <time name="dav">    1.42    1.42</time>
   <time name="total">    4.29    4.29</time>
   <energy>
    <i name="e_fr_energy">    -18.88303094 </i>
    <i name="e_wo_entrp">    -18.88303094 </i>
    <   <time name="dav">    1.67    1.67</time>
   <time name="total">    3.90       <time name="dav">    1.67    1.67</time>
   <time name="total">    3.92    3.92</time>
   <energy>
    <i name="e_fr_energy">    -18.88304733 </i>
    <i name="e_wo_entrp">    -18.88304733 </i>
    <   <time name="dav">    1.42    1.42</time>
   <time name="total">    3.65       <time name="dav">    1.42    1.42</time>
   <time name="total">    3.68    3.68</time>
   <energy>
    <i name="e_fr_energy">    -18.88307939 </i>
    <i name="e_wo_entrp">    -18.88307939 </i>
    <   <time name="dav">    1.67    1.67</time>
   <time name="total">    3.46       <time name="dav">    1.91    1.92</time>
   <time name="total">    3.74    3.74</time>
   <energy>
    <i name="alphaZ">      0.05489739 </i>
    <i name="ewald">    245.50873408 </i>
    <i name="hartreedc">   -587.18922823 </i>
    <i name="XCdc">     36.36958557   <energy>
   <i name="e_fr_energy">    -17.77171487 </i>
   <i name="e_wo_entrp">    -17.77171487 </i>
   <i name="e_0_energy">     -0.00000000 </i>
  </energy>
  <time name="totalsc">   63.14   63.15</time>
 </calculation>
781 </i>
   <i name="e_wo_entrp">    -18.17548781 </i>
   <i name="e_0_energy">     -0.00000000 </i>
  </energy>
  <time name="totalsc">   63.14   63.15</time>
 </calculation>
  <time name="totalsc">   63.07   63.15</time>
 </calculation>
00000       0.00000000       0.00000000 </v>
     <v>       0.00000000      20.00000000       0.00000000 </v>
     <v>       0.00000000       0.00000000      20.00000000 </v>
    </varray>
    <i name="volume">   8000.00000000 </i>
    <varray name="rec_basis" >
     <v>       0.05000000       0.00000000       0.00000000 </v>
     <v>       0.00000000       0.05000000       0.00000000 </v>
     <v>       0.00000000       0.00000000       0.05000000 </v>
    </varray>
   </crystal>
   <varray name="positions" >
    <v>       0.49892154       0.50000000       0.44585962 </v>
    <v>       0.51338289       0.50000000       0.50298422 </v>
    <v>       0.48845301       0.50000000       0.54467104 </v>
   </varray>
  </structure>
  <varray name="forces" >
   <v>       0.29721339       0.00000000      -0.98554961 </v>
   <v>       0.23116228       0.00000000      -1.14895646 </v>
   <v>      -0.52837567       0.00000000       2.13450607 </v>
  </varray>
  <varray name="stress" >
   <v>       0.02348412       0.00000000      -0.15716692 </v>
   <v>       0.00000000      -0.01357940       0.00000000 </  <energy>
   <i name="e_fr_energy">    -19.20781342 </i>
   <i name="e_wo_entrp">    -19.20781342 </i>
   <i name="e_0_energy">     -0.00000000 </i>
  </energy>
  <time name="totalsc">   63.07   63.15</time>
 </calculation>
i>
  </energy>
  <time name="totalsc">      <time name="dav">    2.   <time name="dav">    3.64    3.65</time>
   <time name="total">    7.57    7.58</time>
   <energy>
    <i name="alphaZ">      0.05489739 </i>
    <i name="ewald">    236.42653886 </i>
    <i name="hartreedc">   -580.21351766 </i>
    <i name="XCdc">     36.00303780 </i>
    <i name="pawpsdc">    226.01345372 </i>
    <i name="pawaedc">   -229.19446428 </i>
    <i name="eentropy">     -0.00000000 </i>
    <i name="bandstr">   -132.28219709 </i>
    <i name="atom">    424.98939091 </i>
    <i name="e_fr_energy">    -18.20286036 </i>
    <i name="e_wo_entrp">    -18.20286036 </i>
    <i name="e_0_energy">    -18.20286036 </i>
   </energ   <time name="dav">    2.   <time name="dav">    2.69    2.69</time>
   <time name="total">    <time name="dav">    4.31    4.31</time>
   <time name="total">    7.89    7.89</time>
   <energy>
    <i name="e_fr_energy">    -17.78011251 </i>
    <i name="e_wo_entrp">    -17.7801   <time name="dav">    3.   <time name="dav">    3.   <time name="dav">    4.10    4.13</tim   <time name="dav">    3.62    3.62</time>
   <time name="total">    7.67    7.69</time>
   <energy>
    <i name="e_fr_energy">    -17.77993533 </i>
    <i name="e_wo_entrp">    -17.7799   <time name="dav">    2.   <time name="dav">    3.   <time name="dav">    3.21    3.22</tim   <time name="dav">    3.38    3.38</time>
   <time name="total">    6.68    6.68</time>
   <energy>
    <i name="alphaZ">      0.05489739 </i>
    <i name="ewald">    237.26533618 </i>
   <time name="dav">    3.   <time name="dav">    2.   <time name="dav">    2.77    2.77</time>
   <time name="total">    6.59    6.59</time>
   <energy>
    <i name="e_fr_energy">    -18.34612666 </i>
    <i name="e_wo_entrp">    -18.34612666 </i>
    <i name="e_0_energy">    -1   <time name="dav">    3.   <time name="dav">    3.   <time name="dav">    3.13    3.13</time>
   <time name="total">    6.51    6.51</time>
   <energy>
    <i name="e_fr_energy">    -18.34613707 </i>
    <i name="e_wo_entrp">    -18.34613707 </i>
    <i name="e_0_energy">    -1   <time name="dav">    2.   <time name="dav">    2.   <time name="dav">    2.16    2.17</time>
   <time name="total">    5.37    5.38</time>
   <energy>
    <i name="e_fr_energy">    -18.34615164 </i>
    <i name="e_wo_entrp">    -18.34615164 </i>
    <i name="e_0_energy">    -1   <time name="dav">    2.   <time name="dav">    2.   <time name="dav">    2.54    2.55</time>
   <time name="total">    5.79    5.80</time>
   <energy>
    <i name="e_fr_energy">    -18.34616476 </i>
    <i name="e_wo_entrp">    -18.34616476 </i>
    <i name="e_0_energy">    -1   <time name="dav">    2.   <time name="dav">    2.   <time name="dav">    2.19    2.20</time>
   <time name="total">    5.27    5.27</time>
   <energy>
    <i name="e_fr_energy">    -18.34617999 </i>
    <i name="e_wo_entrp">    -18.34617999 </i>
    <i name="e_0_energy">    -1   <time name="dav">    2.   <time name="dav">    2.   <time name="dav">    2.51    2.52</time>
   <time name="total">    5.05    5.05</time>
   <energy>
    <i name="alphaZ">      0.05489739 </i>
    <i name="ewald">    239.42907123 </i>
    <i name="hartreedc">   -581.44767227 </i>
    <i name="XCdc">     <time name="dav">    2.03    <energy>
   <i name="e_fr_energy">    -17.77993054 </i>
   <i name="e_wo_entrp">    -17.77993054 </i>
   <i name="e_0_energy">     -0.00000000 </i>
  </energy>
  <time name="totalsc">   74.03   74.05</time>
 </calculation>
  35.99977595 </i>
    <i name="pawpsdc">    226.20896632 </i>
    <i name="pawaedc">   -229.41196039 </i>
    <i name="eentropy">     -0.00000000 </i  <structure>
   <crystal>
    <varray name="basis" >
     <v>      20.00000000       0.00000000       0.00000000 </v>
     <v>       0.00000000      20.00000000       0.00000000 </v>
     <v>       0.00000000       0.00000000      20.00000000 </v>
    <  <structure>
   <crystal>
    <varray name="basis" >
     <v>      20.00000000       0.00000000       0.00000000 </v>
     <v>       0.00000000      20.00000000       0.00000000 </v>
     <v>       0.00000000       0.00000000      20.00000000 </v>
    </varray>
    <i name="volume">   8000.00000000 </i>
    <varray name="rec_basis" >
     <v>       0.05000000       0.00000000       0.00000000 </v>
     <v>       0.00000000       0.05000000       0.00000000 </v>
     <v>       0.00000000       0.00000000       0.05000000 </v>
    </varray>
   </crystal>
   <varray name="positions" >
    <v>       0.49411851       0.50000000       0.47454987 </v>
    <v>       0.54589796       0.50000000       0.50308818 </v>
    <v>       0.46252300       0.50000000       0.51944089 </v>
   </varray>
  </structure>
  <varray name="forces" >
   <v>       0.78752221       0.00000000       1.46724002 </v>
   <v>       0.86388983       0.00000000      -1.14920094 <  <energy>
   <i name="e_fr_energy">    -19.24939511 </i>
   <i name="e_wo_entrp">    -19.24939511 </i>
   <i name="e_0_energy">     -0.00000000 </i>
  </energy>
  <time name="totalsc">   74.00   74.05</time>
 </ca  <time name="t  <time name="totalsc">   74.01   74.05</time>
 </calculation>
>
  </varray>
  <energy>
   <i name="e_fr_energy">    -18.20142808 </i>
   <i name="e_wo_entrp">    -18.20142808 </i>
   <i name="e_0_energy">     -0.00000000 </i>
  </energy>
  <time name="totalsc">   73.91   74.05</time>
 </calculation>
 <calculation>
  <scstep>
   <time name="dav">    2.   <time name="dav   <time name="total">    6.71    6.72</time>
   <en   <time name="total">    6.79    6.79</time>
   <energy>
    <i name="alphaZ">      0.05489739 </i>
    <i name="ewald">    239.77270347 </i>
    <i name="hartreedc">   -579.60770425 </i>
    <i name="XCdc">     35.78401515 </i>
    <i name="pawpsdc">    218.47522087 </i>
    <i name="pawaedc">   -221.61392351 </i>
    <i name="eentropy">     -0.00000000 </i>
    <i name="bandstr">   -135.63671062 </i>
    <i name="atom">    424.98939091 </i>
    <i name="e_fr_energy">    -17.78211059 </i>
    <i name="e_wo_entrp">    -17.78211059 </i>
    <i name="e_0_energy">    -1   <time name="dav">    2.   <time name="dav">    3.   <time name="dav   <time name="total">       <time name="total">    8.02    8.02</time>
   <energy>
    <i name="e_fr_energy">    -17.78163938 </i>
    <i name="e_wo_entrp">    -17.78163938 </i>
    <i name="e_0_energy">    -1   <time name="dav">    3.   <time name="dav">    4.   <time name="dav">    4.36    4.36</time>
   <time name="total">    8.45    8.46</time>
   <energy>
    <i name="e_fr_energy">    -17.78135196 </i>
    <i name="e_wo_entrp">    -17.78135196 </i>
    <i name="e_0_energy">    -1   <time name="dav">    2.   <time name="dav">    3.   <time name="dav">    3.68    3.68</time>
   <time name="total">    7.86    7.86</time>
   <energy>
    <i name="e_fr_energy">    -17.78134169 </i>
    <i name="e_wo_entrp">    -17.78134169 </i>
    <i name="e_0_energy">    -1   <time name="dav">    2.   <time name="dav">    3.   <time name="dav">    3.86    3.86</time>
   <time name="total">    7.90    7.90</time>
   <energy>
    <i name="e_fr_energy">    -17.78135200 </i>
    <i name="e_wo_entrp">    -17.78135200 </i>
    <i name="e_0_energy">    -17.78135200 </i>
   </energy>
  </scstep>
  <scstep>
   <time name="dav">    2.04    2.04</time>
   <time name="total">    5.37    5.37</time>
   <energy>
    <i name="alphaZ">      0.05489739 </i>
    <i name="ewald">    239.77270347 </i>
    <i name="hartreedc">   -580.26164055 </i>
    <i name="XCdc">     35.81806468 </i>
    <i name="pawpsdc">    221.02827081 </i>
    <i name="pawaedc">   -224.16791248 </i>
    <i name="eentropy">     -0.00000000 </i>
    <i name="bandstr">   -135.01513220 </i>
    <i name="atom">    424.98939091 </i>
    <i name="e_fr_energy">    -17.78135798 </i>
    <i name="e_wo_entrp">    -17.78135798 </i>
    <i name="e_0_energy">    -17.78135798 </i>
   </energy>
  </scstep>
  <structure>
   <crystal>
    <varray name="basis" >
     <v>      20.00000000       0.00000000       0.00000000 </v>
     <v>       0.00000000      20.00000000       0.00000000 </v>
     <v>       0.00000000       0.00000000      20.00000000 </v>
    </varray>
    <i name="volume">   8000.00000000 </i>
    <varray name="rec_basis" >
     <v>       0.05000000       0.00000000       0.00000000 </v>
     <v>       0.00000000       0.05000000       0.00000000 </v>
     <v>       0.00000000       0.00000000       0.05000000 </v>
    </varray>
   </crystal>
   <varray name="positions" >
    <v>       0.49304442       0.50000000       0.46508995 </v>
    <v>       0.53591188       0.50000000       0.50702392 </v>
    <v>       0.47311510       0.50000000       0.52402894 </v>
   </varray>
  </structure>
  <varray name="forces" >
   <v>       0.12007058       0.00000000      -0.23472033 </v>
   <v>      -0.55536224       0.0  <energy>
   <i name="e_fr_energy">    -18.20819052 </i>
   <i name="e_wo_entrp">    -18.20819052 </i>
   <i name="e_0_energy">     -0.00000000 </i>
  </energy>
  <time name="totalsc">     <time name="totalsc">   50.08   50.11</time>
 </calculation>
 </v>
   <v>       0.00934188       0.00000000       0.03729072 </v>
  </varray>
  <energy>
   <i name="e_fr_energy">    -17.78135798 </i>
   <i name="e_wo_entrp">    -17.78135798 </i>
   <i name="e_0_energy">     -0.00000000 </i>
  </energy>
  <time name="totalsc">      <time name="dav">    3.20    3.20</time>
   <time name="total">    7.04    7.04</time>
   <energy>
    <i name="alphaZ">      0.05489739 </i>
    <i name="ewald">    234.85437385 </i>
    <i name="hartreedc">   -581.01511918 </i>
    <i name="XCdc">     36.26049909 </i>
    <i name="pawpsdc">    234.30143578 </i>
    <i name="pawaedc">   -237.54405967 </i>
    <i name="eentropy">     -0.00000000 </i>
    <i name="bandstr">   -131.16571216 </i>
    <i name="atom">    424.98939091 </i>
    <i name="e_fr_energy">    -19.26429399 </i>
    <i name="e_wo_entrp">    -19.26429399 </i>
    <i name="e_0_energy">    -19.26429399 </i>
   </energy>
  </scstep>
  <scstep>
   <time name="dav">    3.19    3.19</time>
   <time name="total">    6.92    6.92</time>
      <time name="dav">    4.34    4.35</time>
   <time name="total">    8.25    8.27</time>
   <energy>
    <i name="e_fr_energy">    -17.77592677 </i>
    <i name="e_wo_entrp">    -17.7759   <time name="dav">    3.70    3.70</time>
   <time name="total">    7.28    7.29</time>
      <time name="dav">    3.06    3.07</time>
   <time name="total">    7.27    7.29</time>
   <energy>
    <i name="e_fr_energy">    -17.77582047 </i>
    <i name="e_wo_entrp">    -17.7758   <time name="dav">    2.74    2.74</time>
   <time name="total">    5.71    5.71</time>
      <time name="dav">    3.52    3.54</time>
   <time name="total">    6.94    6.96</time>
   <energy>
    <i name="alphaZ">      0.05489739 </i>
    <i name="ewald">    240.85185279 </i>
    <i name="hartreedc">   -581.19672779 </i>
    <i name="XCdc">     35.85687663 </i>
    <i name="pawpsdc">    222.07321342 </i>
    <i name="pawaedc">   -225.21876302 </i>
    <i name="eentropy">     -0.00000000 </i>
    <i name="bandstr">   -135.18655878 </i>
    <i name="atom">    424.98939091 </i>
    <i name="e_fr_energy">    -17.77581845 </i>
    <i name="e_wo_entrp">   <structure>
   <crystal>
    <varray name="basis" >
     <v>      20.00000000       0.00000  <structure>
   <crystal>
    <varray name="basis" >
     <v>      20.00000000       0.00000000       0.00000000 </v>
     <v>       0.00000000      20.00000000       0.00000000 </v>
     <v>       0.00000000       0.00000000      20.00000000 </v>
    </varray>
    <i name="volume">   8000.00000000 </i>
    <varray name="rec_basis" >
     <v>       0.05000000       0.00000000       0.00000000 </v>
     <v>       0.00000000       0.05000000       0.00000000 </v>
     <v>       0.00000000       0.00000000       0.05000000 </v>
    </varray>
   </crystal>
   <varray name="positions" >
    <v>       0.49307706       0.50000000       0.46544425 </v>
    <v>       0.53603464       0.50000000       0.50698847 </v>
    <v>       0.47298369       0.50000000       0.52375806 </v>
   </varray>
  </structure>
  <varray name="forces" >
   <v>      -0.09687776       0.00000000      -0.50587679 </v>
   <v>      -0.22014386       0.00000000       0.31018635 </v>
   <v>       0.31702161       0.00000000       0.19569044 </v>
  </varray>
  <varray name="stress" >
   <v>      -0.07592786       0.00000000       0.03766991 </v>
   <v>       0.00000000      -0.01479222       <energy>
   <i name="e_fr_energy">    -19.26428307 </i>
   <i name="e_wo_entrp">    -19.26428307 </i>
   <i name="e_0_energy">     -0.00000000 </i>
  </energy>
  <time name="totalsc">   57.49   57.53</time>
 </calculation>
>   57.42   57.43</time>
 </calculation>
e="totalsc">   57.11   57.23</time>
 </calculation>
   <time name="dav">    2.   <time name="dav">    2.   <time name="dav">    3.30    3.31</time>
   <time name="total">    7.33    7.35</time>
   <energy>
    <i name="alphaZ">      0.05489739 </i>
    <i name="ewald">    242.82042527 </i>
    <i name="hartreedc">   -582.14572820 </i>
    <i name="XCdc">     35.90035935 </i>
    <i name="pawpsdc">    222.06229230 </i>
    <i name="pawaedc">   -225.20751832 </i>
    <i name="eentropy">     -0.00000000 </i>
    <i name="bandstr">   -136.22673219 </i>
    <i name="atom">    424.98939091 </i>
    <i name="e_fr_energy">    -17.75261348 </i>
    <i name="e_wo_entrp">    -17.75261348 </i>
    <i name="e_0_energy">    -1   <time name="dav">    2.   <time name="dav">    4.   <time name="dav">    3.71    3.72</time>
   <time name="total">    7.76    7.78</time>
   <energy>
    <i name="e_fr_energy">    -17.75064896 </i>
    <i name="e_wo_entrp">    -17.75064896 </i>
    <i name="e_0_energy">    -1   <time name="dav">    4.   <time name="dav">    3.   <time name="dav">    3.73    3.75</time>
   <time name="total">    7.79    7.81</time>
   <energy>
    <i name="e_fr_energy">    -17.74916997 </i>
    <i name="e_wo_entrp">    -17.74916997 </i>
    <i name="e_0_energy">    -1   <time name="dav">    3.   <time name="dav">    3.   <time name="dav">    3.86    3.87</time>
   <time name="total">    8.04    8.07</time>
   <energy>
    <i name="e_fr_energy">    -17.74902156 </i>
    <i name="e_wo_entrp">    -17.74902156 </i>
    <i name="e_0_energy">    -1   <time name="dav">    2.   <time name="dav">    2.   <time name="dav">    2.67    2.67</time>
   <time name="total">    6.78    6.79</time>
   <energy>
    <i name="e_fr_energy">    -17.74903962 </i>
    <i name="e_wo_entrp">    -17.74903962 </i>
    <i name="e_0_energy">    -1   <time name="dav">    1.86    1.86</time>
   <time   <time name="dav">    2.91    2.91</time>
   <time name="total">    6.64    6.64</time>
   <energy>
    <i name="e_fr_energy">    -17.74907572 </i>
    <i name="e_wo_entrp">    -17.74907572 </i>
    <i name="e_0_energy">    -17.74907572 </i>
   </energy>
  </scstep>
  <scstep>
   <time name="dav">    1.69    1.69</time>
   <time name="total">    4.54    4.54</time>
   <energy>
    <i name="e_fr_energy">    -17.74912659 </i>
    <i name="e_wo_entrp">    -17.74912659 </i>
    <i name="e_0_energy">    -17.74912659 </i>
   </energy>
  </scstep>
  <scstep>
   <time name="dav">    2.09    2.09</time>
   <time name="total">    4.89    4.89</time>
   <energy>
    <i name="e_fr_energy">    -17.74920876 </i>
    <i name="e_wo_entrp">    -17.74920876 </i>
    <i name="e_0_energy">    -17.74920876 </i>
   </energy>
  </scstep>
  <scstep>
   <time name="dav">    2.70    2.70</time>
   <time name="total">    5.41    5.41</time>
   <energy>
    <i name="e_fr_energy">    -17.74926498 </i>
    <i name="e_wo_entrp">    -17.74926498 </i>
    <i name="e_0_energy">    -17.74926498 </i>
   </energy>
  </scstep>
  <scstep>
   <time name="dav">    2.05    2.05</time>
   <time name="total">    4.76    4.76</time>
   <energy>
    <i name="e_fr_energy">    -17.74928788 </i>
[...]
   <energy>
    <i name="e_fr_energy">    -17.75373104 </i>
    <i name="e_wo_entrp">    -17.75373104 </i>
    <i name="e_0_energy">     <time name="   <time name="dav">    3.68    3.68</tim   <time name="dav">    3.84    3.84</time>
   <time name="total">    7.50    7.60</time>
   <energy>
    <i name="alphaZ">      0.05489739 </i>
    <i name="ewald">    239.68353750 </i>
    <i name="hartreedc">   -580.63954   <time name="   <time name="dav">    2.69    2.69</time>
   <time name="total">    6.52    6.52</time>
   <energy>
    <i name="e_fr_energy">    -19.02977638 </i>
    <i name="e_wo_entrp">    -19.02977638 </i>
    <i name="e_0_energy">    -19.02977638 </i>
   </energy>
  </scstep>
  <scstep>
   <time name="dav">    2.04    2.04</time>
   <time name="total">    5.35    5.35</time>
   <energy>
    <i name="alphaZ">      0.05489739 </i>
    <i name="ewald">    241.79389852 </i>
    <i name="hartreedc">   -584.35568293 </i>
    <i name="XCdc">     36.25114590 </i>
    <i name="pawpsdc">    240.49311123 </i>
    <i name="pawaedc">   -243.89891916 </i>
    <i name="eentropy">     -0.00000000 </i>
    <i name="bandstr">   -134.35762701 </i>
    <i name="atom">    424.98939091 </i>
    <i name="e_fr_energy">    -19.02978515 </i>
    <i name="e_wo_entrp">    -19.02978515 </i>
    <i name="e_0_energy">    -19.02978515 </i>
   </energy>
  </scstep>
  <structure>
   <crystal>
    <varray name="basis" >
     <v>      20.00000000       0.00000000       0.00000000 </v>
     <v>       0.00000000      20.00000000       0.00000000 </v>
     <v>       0.00000000       0.00000000      20.00000000 </v>
    </varray>
    <i name="volume">   8000.00000000 </i>
    <varray name="rec_basis" >
     <v>       0.05000000       0.00000000      <energy>
   <i name="e_fr_energy">    -18.44991571 </i>
   <i name="e_wo_ent   <i name="e_fr_energy">    <i name="e_0_energ   <i name="e_wo_entrp">   </energy>
  <time name="totalsc">   46.68   46.69</time>
  <eigenvalues>
   <array>
    <dimension dim="1">band</dimension>
  <eigenvalues>
   <array>
    <dimension dim="1">band</dimension>
    <dimension dim="2">kpoint</dimension>
    <dimension dim="3">spin</dimension>
    <field>eigene</field>
    <field>occ</field>
    <set>
     <set comment="spin 1">
      <set comment="kpoint 1">
       <r>  -23.2056    1.0000 </r>
       <r>  -14.9961    1.0000 </r>
       <r>   -9.5173    1.0000 </r>
       <r>   -9.1265    1.0000 </r>
       <r>   -8.8501    1.0000 </r>
       <r>   -2.2265    0.0000 </r>
       <r>   -1.1753    0.0000 </r>
       <r>   -0.3265    0.0000 </r>
       <r>    0.0871    0.0000 </r>
       <r>    0.3089    0.0000 </r>
       <r>    0.3524    0.0000 </r>
       <r>    0.3561    0.0000 </r>
       <r>    0.3905    0.0000 </r>
       <r>    0.4011    0.0000 </r>
       <r>    0.5173    0.0000 </r>
       <r>    0.6111    0.0000 </r>
      </set>
     </set>
    </set>
   </array>
  </eigenvalues>
  <separator name="orbital magnetization" >
   <v name="MAGDIPOLOUT">      0.00000000      0.00000000      0.00000000</v>
  </separator>
  <dos>
   <i name="efermi">     -8.74288809 </i>
   <total>
    <array>
     <dimension dim="1">gridpoints</dimension>
     <dimension dim="2">spin</dimension>
     <field>energy</field>
     <field>total</field>
     <field>integrated</field>
     <set>
      <set comment="spin 1">
       <r>   -24.3965     0.0000     0.0000 </r>
       <r>   -24.3091     0.0000     0.0000 </r>
       <r>   -24.2218     0.0000     0.0000 </r>
       <r>   -24.1345     0.0000     0.0000 </r>
       <r>   -24.0471     0.0000     0.0000 </r>
       <r>   -23.9598     0.0000     0.0000 </r>
       <r>   -23.8725     0.0000     0.0000 </r>
       <r>   -23.7852     0.0000     0.0000 </r>
       <r>   -23.6978     0.0000     0.0000 </r>
       <r>   -23.6105     0.0000     0.0000 </r>
       <r>   -23.5232     0.0000     0.0000 </r>
       <r>   -23.4358     0.0000     0.0000 </r>
       <r>   -23.3485     0.0000     0.0000 </r>
       <r>   -23.2612     0.0000     0.0000 </r>
       <r>   -23.1739    22.9021     2.0000 </r>
       <r>   -23.0865     0.0000     2.0000 </r>
       <r>   -22.9992     0.0000     2.0000 </r>
       <r>   -22.9119     0.0000     2.0000 </r>
       <r>   -22.8245     0.0000     2.0000 </r>
       <r>   -22.7372     0.0000     2.0000 </r>
       <r>   -22.6499     0.0000     2.0000 </r>
       <r>   -22.5626     0.0000     2.0000 </r>
       <r>   -22.4752     0.0000     2.0000 </r>
       <r>   -22.3879     0.0000     2.0000 </r>
       <r>   -22.3006     0.0000     2.0000 </r>
       <r>   -22.2132     0.0000     2.0000 </r>
       <r>   -22.1259     0.0000     2.0000 </r>
       <r>   -22.0386     0.0000     2.0000 </r>
       <r>   -21.9513     0.0000     2.0000 </r>
       <r>   -21.8639     0.0000     2.0000 </r>
       <r>   -21.7766     0.0000     2.0000 </r>
       <r>   -21.6893     0.0000     2.0000 </r>
       <r>   -21.6020     0.0000     2.0000 </r>
       <r>   -21.5146     0.0000     2.0000 </r>
       <r>   -21.4273     0.0000     2.0000 </r>
       <r>   -21.3400     0.0000     2.0000 </r>
       <r>   -21.2526     0.0000     2.0000 </r>
       <r>   -21.1653     0.0000     2.0000 </r>
       <r>   -21.0780     0.0000     2.0000 </r>
       <r>   -20.9907     0.0000     2.0000 </r>
       <r>   -20.9033     0.0000     2.0000 </r>
       <r>   -20.8160     0.0000     2.0000 </r>
       <r>   -20.7287     0.0000     2.0000 </r>
       <r>   -20.6413     0.0000     2.0000 </r>
       <r>   -20.5540     0.0000     2.0000 </r>
       <r>   -20.4667     0.0000     2.0000 </r>
       <r>   -20.3794     0.0000     2.0000 </r>
       <r>   -20.2920     0.0000     2.0000 </r>
       <r>   -20.2047     0.0000     2.0000 </r>
       <r>   -20.1174     0.0000     2.0000 </r>
       <r>   -20.0300     0.0000     2.0000 </r>
       <r>   -19.9427     0.0000     2.0000 </r>
       <r>   -19.8554     0.0000     2.0000 </r>
       <r>   -19.7681     0.0000     2.0000 </r>
       <r>   -19.6807     0.0000     2.0000 </r>
       <r>   -19.5934     0.0000     2.0000 </r>
       <r>   -19.5061     0.0000     2.0000 </r>
       <r>   -19.4187     0.0000     2.0000 </r>
       <r>   -19.3314     0.0000     2.0000 </r>
       <r>   -19.2441     0.0000     2.0000 </r>
       <r>   -19.1568     0.0000     2.0000 </r>
       <r>   -19.0694     0.0000     2.0000 </r>
       <r>   -18.9821     0.0000     2.0000 </r>
       <r>   -18.8948     0.0000     2.0000 </r>
       <r>   -18.8075     0.0000     2.0000 </r>
       <r>   -18.7201     0.0000     2.0000 </r>
       <r>   -18.6328     0.0000     2.0000 </r>
       <r>   -18.5455     0.0000     2.0000 </r>
       <r>   -18.4581     0.0000     2.0000 </r>
       <r>   -18.3708     0.0000     2.0000 </r>
       <r>   -18.2835     0.0000     2.0000 </r>
       <r>   -18.1962     0.0000     2.0000 </r>
       <r>   -18.1088     0.0000     2.0000 </r>
       <r>   -18.0215     0.0000     2.0000 </r>
       <r>   -17.9342     0.0000     2.0000 </r>
       <r>   -17.8468     0.0000     2.0000 </r>
       <r>   -17.7595     0.0000     2.0000 </r>
       <r>   -17.6722     0.0000     2.0000 </r>
       <r>   -17.5849     0.0000     2.0000 </r>
       <r>   -17.4975     0.0000     2.0000 </r>
       <r>   -17.4102     0.0000     2.0000 </r>
       <r>   -17.3229     0.0000     2.0000 </r>
       <r>   -17.2355     0.0000     2.0000 </r>
       <r>   -17.1482     0.0000     2.0000 </r>
       <r>   -17.0609     0.0000     2.0000 </r>
       <r>   -16.9736     0.0000     2.0000 </r>
       <r>   -16.8862     0.0000     2.0000 </r>
       <r>   -16.7989     0.0000     2.0000 </r>
       <r>   -16.7116     0.0000     2.0000 </r>
       <r>   -16.6243     0.0000     2.0000 </r>
       <r>   -16.5369     0.0000     2.0000 </r>
       <r>   -16.4496     0.0000     2.0000 </r>
       <r>   -16.3623     0.0000     2.0000 </r>
       <r>   -16.2749     0.0000     2.0000 </r>
       <r>   -16.1876     0.0000     2.0000 </r>
       <r>   -16.1003     0.0000     2.0000 </r>
       <r>   -16.0130     0.0000     2.0000 </r>
       <r>   -15.9256     0.0000     2.0000 </r>
       <r>   -15.8383     0.0000     2.0000 </r>
       <r>   -15.7510     0.0000     2.0000 </r>
       <r>   -15.6636     0.0000     2.0000 </r>
       <r>   -15.5763     0.0000     2.0000 </r>
       <r>   -15.4890     0.0000     2.0000 </r>
       <r>   -15.4017     0.0000     2.0000 </r>
       <r>   -15.3143     0.0000     2.0000 </r>
       <r>   -15.2270     0.0000     2.0000 </r>
       <r>   -15.1397     0.0000     2.0000 </r>
       <r>   -15.0523     0.0000     2.0000 </r>
       <r>   -14.9650    22.9020     4.0000 </r>
       <r>   -14.8777     0.0000     4.0000 </r>
       <r>   -14.7904     0.0000     4.0000 </r>
       <r>   -14.7030     0.0000     4.0000 </r>
       <r>   -14.6157     0.0000     4.0000 </r>
       <r>   -14.5284     0.0000     4.0000 </r>
       <r>   -14.4410     0.0000     4.0000 </r>
       <r>   -14.3537     0.0000     4.0000 </r>
       <r>   -14.2664     0.0000     4.0000 </r>
       <r>   -14.1791     0.0000     4.0000 </r>
       <r>   -14.0917     0.0000     4.0000 </r>
       <r>   -14.0044     0.0000     4.0000 </r>
       <r>   -13.9171     0.0000     4.0000 </r>
       <r>   -13.8298     0.0000     4.0000 </r>
       <r>   -13.7424     0.0000     4.0000 </r>
       <r>   -13.6551     0.0000     4.0000 </r>
       <r>   -13.5678     0.0000     4.0000 </r>
       <r>   -13.4804     0.0000     4.0000 </r>
       <r>   -13.3931     0.0000     4.0000 </r>
       <r>   -13.3058     0.0000     4.0000 </r>
       <r>   -13.2185     0.0000     4.0000 </r>
       <r>   -13.1311     0.0000     4.0000 </r>
       <r>   -13.0438     0.0000     4.0000 </r>
       <r>   -12.9565     0.0000     4.0000 </r>
       <r>   -12.8691     0.0000     4.0000 </r>
       <r>   -12.7818     0.0000     4.0000 </r>
       <r>   -12.6945     0.0000     4.0000 </r>
       <r>   -12.6072     0.0000     4.0000 </r>
       <r>   -12.5198     0.0000     4.0000 </r>
       <r>   -12.4325     0.0000     4.0000 </r>
       <r>   -12.3452     0.0000     4.0000 </r>
       <r>   -12.2578     0.0000     4.0000 </r>
       <r>   -12.1705     0.0000     4.0000 </r>
       <r>   -12.0832     0.0000     4.0000 </r>
       <r>   -11.9959     0.0000     4.0000 </r>
       <r>   -11.9085     0.0000     4.0000 </r>
       <r>   -11.8212     0.0000     4.0000 </r>
       <r>   -11.7339     0.0000     4.0000 </r>
       <r>   -11.6465     0.0000     4.0000 </r>
       <r>   -11.5592     0.0000     4.0000 </r>
       <r>   -11.4719     0.0000     4.0000 </r>
       <r>   -11.3846     0.0000     4.0000 </r>
       <r>   -11.2972     0.0000     4.0000 </r>
       <r>   -11.2099     0.0000     4.0000 </r>
       <r>   -11.1226     0.0000     4.0000 </r>
       <r>   -11.0353     0.0000     4.0000 </r>
       <r>   -10.9479     0.0000     4.0000 </r>
       <r>   -10.8606     0.0000     4.0000 </r>
       <r>   -10.7733     0.0000     4.0000 </r>
       <r>   -10.6859     0.0000     4.0000 </r>
       <r>   -10.5986     0.0000     4.0000 </r>
       <r>   -10.5113     0.0000     4.0000 </r>
       <r>   -10.4240     0.0000     4.0000 </r>
       <r>   -10.3366     0.0000     4.0000 </r>
       <r>   -10.2493     0.0000     4.0000 </r>
       <r>   -10.1620     0.0000     4.0000 </r>
       <r>   -10.0746     0.0000     4.0000 </r>
       <r>    -9.9873     0.0000     4.0000 </r>
       <r>    -9.9000     0.0000     4.0000 </r>
       <r>    -9.8127     0.0000     4.0000 </r>
       <r>    -9.7253     0.0000     4.0000 </r>
       <r>    -9.6380     0.0000     4.0000 </r>
       <r>    -9.5507     0.0000     4.0000 </r>
       <r>    -9.4633    22.9021     6.0000 </r>
       <r>    -9.3760     0.0000     6.0000 </r>
       <r>    -9.2887     0.0000     6.0000 </r>
       <r>    -9.2014     0.0000     6.0000 </r>
       <r>    -9.1140    21.9975     7.9210 </r>
       <r>    -9.0267     0.0000     8.0000 </r>
       <r>    -8.9394     0.0000     8.0000 </r>
       <r>    -8.8520     8.9553     8.7820 </r>
       <r>    -8.7647     0.0000    10.0000 </r>
       <r>    -8.6774     0.0000    10.0000 </r>
       <r>    -8.5901     0.0000    10.0000 </r>
       <r>    -8.5027     0.0000    10.0000 </r>
       <r>    -8.4154     0.0000    10.0000 </r>
       <r>    -8.3281     0.0000    10.0000 </r>
       <r>    -8.2408     0.0000    10.0000 </r>
       <r>    -8.1534     0.0000    10.0000 </r>
       <r>    -8.0661     0.0000    10.0000 </r>
       <r>    -7.9788     0.0000    10.0000 </r>
       <r>    -7.8914     0.0000    10.0000 </r>
       <r>    -7.8041     0.0000    10.0000 </r>
       <r>    -7.7168     0.0000    10.0000 </r>
       <r>    -7.6295     0.0000    10.0000 </r>
       <r>    -7.5421     0.0000    10.0000 </r>
       <r>    -7.4548     0.0000    10.0000 </r>
       <r>    -7.3675     0.0000    10.0000 </r>
       <r>    -7.2801     0.0000    10.0000 </r>
       <r>    -7.1928     0.0000    10.0000 </r>
       <r>    -7.1055     0.0000    10.0000 </r>
       <r>    -7.0182     0.0000    10.0000 </r>
       <r>    -6.9308     0.0000    10.0000 </r>
       <r>    -6.8435     0.0000    10.0000 </r>
       <r>    -6.7562     0.0000    10.0000 </r>
       <r>    -6.6688     0.0000    10.0000 </r>
       <r>    -6.5815     0.0000    10.0000 </r>
       <r>    -6.4942     0.0000    10.0000 </r>
       <r>    -6.4069     0.0000    10.0000 </r>
       <r>    -6.3195     0.0000    10.0000 </r>
       <r>    -6.2322     0.0000    10.0000 </r>
       <r>    -6.1449     0.0000    10.0000 </r>
       <r>    -6.0575     0.0000    10.0000 </r>
       <r>    -5.9702     0.0000    10.0000 </r>
       <r>    -5.8829     0.0000    10.0000 </r>
       <r>    -5.7956     0.0000    10.0000 </r>
       <r>    -5.7082     0.0000    10.0000 </r>
       <r>    -5.6209     0.0000    10.0000 </r>
       <r>    -5.5336     0.0000    10.0000 </r>
       <r>    -5.4463     0.0000    10.0000 </r>
       <r>    -5.3589     0.0000    10.0000 </r>
       <r>    -5.2716     0.0000    10.0000 </r>
       <r>    -5.1843     0.0000    10.0000 </r>
       <r>    -5.0969     0.0000    10.0000 </r>
       <r>    -5.0096     0.0000    10.0000 </r>
       <r>    -4.9223     0.0000    10.0000 </r>
       <r>    -4.8350     0.0000    10.0000 </r>
       <r>    -4.7476     0.0000    10.0000 </r>
       <r>    -4.6603     0.0000    10.0000 </r>
       <r>    -4.5730     0.0000    10.0000 </r>
       <r>    -4.4856     0.0000    10.0000 </r>
       <r>    -4.3983     0.0000    10.0000 </r>
       <r>    -4.3110     0.0000    10.0000 </r>
       <r>    -4.2237     0.0000    10.0000 </r>
       <r>    -4.1363     0.0000    10.0000 </r>
       <r>    -4.0490     0.0000    10.0000 </r>
       <r>    -3.9617     0.0000    10.0000 </r>
       <r>    -3.8743     0.0000    10.0000 </r>
       <r>    -3.7870     0.0000    10.0000 </r>
       <r>    -3.6997     0.0000    10.0000 </r>
       <r>    -3.6124     0.0000    10.0000 </r>
       <r>    -3.5250     0.0000    10.0000 </r>
       <r>    -3.4377     0.0000    10.0000 </r>
       <r>    -3.3504     0.0000    10.0000 </r>
       <r>    -3.2630     0.0000    10.0000 </r>
       <r>    -3.1757     0.0000    10.0000 </r>
       <r>    -3.0884     0.0000    10.0000 </r>
       <r>    -3.0011     0.0000    10.0000 </r>
       <r>    -2.9137     0.0000    10.0000 </r>
       <r>    -2.8264     0.0000    10.0000 </r>
       <r>    -2.7391     0.0000    10.0000 </r>
       <r>    -2.6518     0.0000    10.0000 </r>
       <r>    -2.5644     0.0000    10.0000 </r>
       <r>    -2.4771     0.0000    10.0000 </r>
       <r>    -2.3898     0.0000    10.0000 </r>
       <r>    -2.3024     0.0000    10.0000 </r>
       <r>    -2.2151    21.6597    11.8915 </r>
       <r>    -2.1278     0.0000    12.0000 </r>
       <r>    -2.0405     0.0000    12.0000 </r>
       <r>    -1.9531     0.0000    12.0000 </r>
       <r>    -1.8658     0.0000    12.0000 </r>
       <r>    -1.7785     0.0000    12.0000 </r>
       <r>    -1.6911     0.0000    12.0000 </r>
       <r>    -1.6038     0.0000    12.0000 </r>
       <r>    -1.5165     0.0000    12.0000 </r>
       <r>    -1.4292     0.0000    12.0000 </r>
       <r>    -1.3418     0.0000    12.0000 </r>
       <r>    -1.2545     0.0000    12.0000 </r>
       <r>    -1.1672    20.0586    13.7517 </r>
       <r>    -1.0798     0.0000    14.0000 </r>
       <r>    -0.9925     0.0000    14.0000 </r>
       <r>    -0.9052     0.0000    14.0000 </r>
       <r>    -0.8179     0.0000    14.0000 </r>
       <r>    -0.7305     0.0000    14.0000 </r>
       <r>    -0.6432     0.0000    14.0000 </r>
       <r>    -0.5559     0.0000    14.0000 </r>
       <r>    -0.4685     0.0000    14.0000 </r>
       <r>    -0.3812     0.0000    14.0000 </r>
       <r>    -0.2939    22.9021    16.0000 </r>
       <r>    -0.2066     0.0000    16.0000 </r>
       <r>    -0.1192     0.0000    16.0000 </r>
       <r>    -0.0319     0.0000    16.0000 </r>
       <r>     0.0554     0.0001    16.0000 </r>
       <r>     0.1427    22.9020    18.0000 </r>
       <r>     0.2301     0.0000    18.0000 </r>
       <r>     0.3174    20.2498    19.7684 </r>
       <r>     0.4047    84.1194    27.3460 </r>
       <r>     0.4921     0.0042    28.0004 </r>
       <r>     0.5794    22.8980    30.0000 </r>
       <r>     0.6667    22.9021    32.0000 </r>
       <r>     0.7540     0.0000    32.0000 </r>
       <r>     0.8414     0.0000    32.0000 </r>
       <r>     0.9287     0.0000    32.0000 </r>
       <r>     1.0160     0.0000    32.0000 </r>
       <r>     1.1034     0.0000    32.0000 </r>
       <r>     1.1907     0.0000    32.0000 </r>
       <r>     1.2780     0.0000    32.0000 </r>
       <r>     1.3653     0.0000    32.0000 </r>
       <r>     1.4527     0.0000    32.0000 </r>
       <r>     1.5400     0.0000    32.0000 </r>
       <r>     1.6273     0.0000    32.0000 </r>
       <r>     1.7147     0.0000    32.0000 </r>
       <r>     1.8020     0.0000    32.0000 </r>
      </set>
     </set>
    </array>
   </total>
  </dos>
 </calculation>
 <structure name="finalpos" >
  <crystal>
   <varray name="basis" >
    <v>      20.00000000       0.00000000       0.00000000 </v>
    <v>       0.00000000      20.00000000       0.00000000 </v>
    <v>       0.00000000       0.00000000      20.00000000 </v>
   </varray>
   <i name="volume">   8000.00000000 </i>
   <varray name="rec_basis" >
    <v>       0.05000000       0.00000000       0.00000000 </v>
    <v>       0.00000000       0.05000000       0.00000000 </v>
    <v>       0.00000000       0.00000000       0.05000000 </v>
   </varray>
  </crystal>
  <varray name="positions" >
   <v>       0.49738341       0.50000000       0.48929918 </v>
   <v>       0.55501817       0.50000000       0.49454349 </v>
   <v>       0.45035764       0.50000000       0.51367577 </v>
  </varray>
 </structure>
</modeling>
5000000 </v>
   </varray>
  </crystal>
  <varray name="positions" >
   <v>       0.49433367       0.50000000       0.46713867 </v>
   <v>       0.53791798       0.50000000       0.50790615 </v>
   <v>       0.47050437       0.50000000       0.52246722 </v>
  </varray>
 </structure>
</modeling>
<v>       0.50147403       0.50000000       0.45414865 </v>
   <v>       0.52411570       0.50000000       0.50963486 </v>
   <v>       0.47716604       0.50000000       0.53372803 </v>
  </varray>
 </structure>
</modeling>
5000000 </v>
   </varray>
  </crystal>
  <varray name="positions" >
   <v>       0.51091801       0.50000000       0.44588632 </v>
   <v>       0.50963510       0.50000000       0.50484324 </v>
   <v>       0.48218745       0.50000000       0.54675157 </v>
  </varray>
 </structure>
</modeling>
