 running on   20 total cores
 distrk:  each k-point on   20 cores,    1 groups
 distr:  one band on    1 cores,   20 groups
 using from now: INCAR     
 vasp.5.4.1 05Feb16 (build Sep 02 2018 21:45:25) complex                        
  
 POSCAR found type information on POSCAR  Pt
 POSCAR found :  1 types and      13 ions
 scaLAPACK will be used

 ----------------------------------------------------------------------------- 
|                                                                             |
|           W    W    AA    RRRRR   N    N  II  N    N   GGGG   !!!           |
|           W    W   A  A   R    R  NN   N  II  NN   N  G    G  !!!           |
|           W    W  A    A  R    R  N N  N  II  N N  N  G       !!!           |
|           W WW W  AAAAAA  RRRRR   N  N N  II  N  N N  G  GGG   !            |
|           WW  WW  A    A  R   R   N   NN  II  N   NN  G    G                |
|           W    W  A    A  R    R  N    N  II  N    N   GGGG   !!!           |
|                                                                             |
|      For optimal performance we recommend to set                            |
|        NCORE= 4 - approx SQRT( number of cores)                             |
|      NCORE specifies how many cores store one orbital (NPAR=cpu/NCORE).     |
|      This setting can  greatly improve the performance of VASP for DFT.     |
|      The default, NPAR=number of cores might be grossly inefficient         |
|      on modern multi-core architectures or massively parallel machines.     |
|      Do your own testing !!!!                                               |
|      Unfortunately you need to use the default for GW and RPA calculations. |
|      (for HF NCORE is supported but not extensively tested yet)             |
|                                                                             |
 ----------------------------------------------------------------------------- 

 LDA part: xc-table for Ceperly-Alder, standard interpolation
 POSCAR, INCAR and KPOINTS ok, starting setup
 WARNING: small aliasing (wrap around) errors must be expected
 FFT: planning ...
 WAVECAR not read
 entering main loop
       N       E                     dE             d eps       ncg     rms          rms(c)
DAV:   1     0.104961317043E+04    0.10496E+04   -0.24685E+04   160   0.911E+02
DAV:   2     0.466615963384E+03   -0.58300E+03   -0.54855E+03   280   0.107E+02
DAV:   3     0.414644290765E+02   -0.42515E+03   -0.41904E+03   260   0.113E+02
DAV:   4    -0.477827614429E+02   -0.89247E+02   -0.85560E+02   240   0.740E+01
DAV:   5    -0.590606016668E+02   -0.11278E+02   -0.10818E+02   240   0.235E+01    0.117E+01
DAV:   6    -0.574885965523E+02    0.15720E+01   -0.27190E+01   220   0.196E+01    0.688E+00
DAV:   7    -0.578484954672E+02   -0.35990E+00   -0.15675E+01   260   0.235E+01    0.655E+00
DAV:   8    -0.570623107448E+02    0.78618E+00   -0.52349E+00   300   0.169E+01    0.467E+00
DAV:   9    -0.568392596610E+02    0.22305E+00   -0.38755E+00   260   0.943E+00    0.289E+00
DAV:  10    -0.568961832047E+02   -0.56924E-01   -0.21621E+00   280   0.756E+00    0.322E+00
DAV:  11    -0.567571456961E+02    0.13904E+00   -0.11046E+00   300   0.566E+00    0.126E+00
DAV:  12    -0.567272106887E+02    0.29935E-01   -0.17623E-01   280   0.269E+00    0.708E-01
DAV:  13    -0.567159371780E+02    0.11274E-01   -0.60437E-02   240   0.149E+00    0.263E-01
DAV:  14    -0.567128311942E+02    0.31060E-02   -0.12089E-02   260   0.779E-01    0.182E-01
DAV:  15    -0.567102215131E+02    0.26097E-02   -0.37092E-03   220   0.424E-01    0.865E-02
DAV:  16    -0.567093689809E+02    0.85253E-03   -0.83592E-04   240   0.228E-01    0.572E-02
DAV:  17    -0.567092857599E+02    0.83221E-04   -0.65289E-04   200   0.189E-01    0.408E-02
DAV:  18    -0.567103515004E+02   -0.10657E-02   -0.39280E-04   220   0.131E-01    0.270E-02
DAV:  19    -0.567128674607E+02   -0.25160E-02   -0.11001E-03   200   0.102E-01    0.150E-02
DAV:  20    -0.567148579071E+02   -0.19904E-02   -0.12289E-03   200   0.705E-02    0.967E-03
DAV:  21    -0.567156460479E+02   -0.78814E-03   -0.28023E-04   200   0.485E-02    0.755E-03
DAV:  22    -0.567159990508E+02   -0.35300E-03   -0.45653E-05   180   0.317E-02    0.399E-03
DAV:  23    -0.567164264976E+02   -0.42745E-03   -0.53336E-05   140   0.193E-02    0.213E-03
DAV:  24    -0.567167096032E+02   -0.28311E-03   -0.39367E-05   180   0.133E-02    0.173E-03
DAV:  25    -0.567168551727E+02   -0.14557E-03   -0.17737E-05   120   0.899E-03    0.910E-04
DAV:  26    -0.567169058237E+02   -0.50651E-04   -0.10205E-05   160   0.599E-03    0.505E-04
DAV:  27    -0.567169131065E+02   -0.72828E-05   -0.80308E-07   100   0.401E-03
   1 F= -.56716913E+02 E0= -.56661500E+02  d E =-.567169E+02
 curvature:   0.00 expect dE= 0.000E+00 dE for cont linesearch  0.000E+00
 trial: gam= 0.00000 g(F)=  0.218E-03 g(S)=  0.000E+00 ort = 0.000E+00 (trialstep = 0.100E+01)
 search vector abs. value=  0.218E-03
 bond charge predicted
       N       E                     dE             d eps       ncg     rms          rms(c)
DAV:   1    -0.567171203240E+02   -0.21450E-03   -0.12786E-02   160   0.335E-01    0.227E-02
DAV:   2    -0.567171989625E+02   -0.78638E-04   -0.87601E-04   260   0.122E-01    0.749E-02
DAV:   3    -0.567171441596E+02    0.54803E-04   -0.67088E-04   180   0.107E-01    0.174E-02
DAV:   4    -0.567171350429E+02    0.91167E-05   -0.38334E-05   100   0.208E-02
   2 F= -.56717135E+02 E0= -.56661755E+02  d E =-.221936E-03
 ZBRENT: can't locate minimum, use default step
 trial-energy change:   -0.000222  1 .order   -0.000219   -0.000218   -0.000221
 step:   4.0000(harm=  4.0000)  dis= 0.00334  next Energy=   -56.717807 (dE=-0.894E-03)
 bond charge predicted
       N       E                     dE             d eps       ncg     rms          rms(c)
DAV:   1    -0.567176774605E+02   -0.53330E-03   -0.11518E-01   160   0.101E+00    0.725E-02
DAV:   2    -0.567184480434E+02   -0.77058E-03   -0.87326E-03   260   0.381E-01    0.240E-01
DAV:   3    -0.567178928474E+02    0.55520E-03   -0.69589E-03   260   0.342E-01    0.562E-02
DAV:   4    -0.567177967404E+02    0.96107E-04   -0.40204E-04   260   0.607E-02    0.220E-02
DAV:   5    -0.567177846628E+02    0.12078E-04   -0.36880E-05   120   0.424E-02    0.187E-02
DAV:   6    -0.567177804806E+02    0.41822E-05   -0.33263E-05   180   0.485E-02
   3 F= -.56717780E+02 E0= -.56662557E+02  d E =-.867374E-03
 curvature:  -3.02 expect dE=-0.689E-03 dE for cont linesearch -0.676E-03
 ZBRENT: increasing intervall
 opt :  10.0000  next Energy=   -56.719108 (dE=-0.219E-02)
 bond charge predicted
       N       E                     dE             d eps       ncg     rms          rms(c)
DAV:   1    -0.567185902495E+02   -0.80559E-03   -0.46014E-01   160   0.201E+00    0.141E-01
DAV:   2    -0.567215508139E+02   -0.29606E-02   -0.33396E-02   260   0.744E-01    0.465E-01
DAV:   3    -0.567194755893E+02    0.20752E-02   -0.26758E-02   260   0.670E-01    0.112E-01
DAV:   4    -0.567191137319E+02    0.36186E-03   -0.15480E-03   260   0.123E-01    0.416E-02
DAV:   5    -0.567190771925E+02    0.36539E-04   -0.18353E-04   260   0.890E-02    0.394E-02
DAV:   6    -0.567190613717E+02    0.15821E-04   -0.12940E-04   220   0.864E-02    0.283E-02
DAV:   7    -0.567190542039E+02    0.71678E-05   -0.61756E-05   140   0.629E-02
   4 F= -.56719054E+02 E0= -.56664203E+02  d E =-.214110E-02
 curvature:  -5.92 expect dE=-0.146E-02 dE for cont linesearch -0.130E-02
 ZBRENT: increasing intervall
 opt :  22.0000  next Energy=   -56.721653 (dE=-0.474E-02)
 bond charge predicted
       N       E                     dE             d eps       ncg     rms          rms(c)
DAV:   1    -0.567196127121E+02   -0.55134E-03   -0.18402E+00   160   0.402E+00    0.275E-01
DAV:   2    -0.567308971304E+02   -0.11284E-01   -0.12822E-01   260   0.145E+00    0.906E-01
DAV:   3    -0.567231485475E+02    0.77486E-02   -0.10282E-01   240   0.132E+00    0.221E-01
DAV:   4    -0.567217482772E+02    0.14003E-02   -0.57135E-03   240   0.242E-01    0.841E-02
DAV:   5    -0.567216011098E+02    0.14717E-03   -0.67368E-04   260   0.169E-01    0.766E-02
DAV:   6    -0.567215288420E+02    0.72268E-04   -0.41646E-04   260   0.161E-01    0.466E-02
DAV:   7    -0.567215194603E+02    0.93817E-05   -0.20223E-04   260   0.105E-01    0.410E-02
DAV:   8    -0.567215056599E+02    0.13800E-04   -0.56833E-05   120   0.598E-02    0.250E-02
DAV:   9    -0.567215026164E+02    0.30435E-05   -0.14455E-05   120   0.242E-02
   5 F= -.56721503E+02 E0= -.56667073E+02  d E =-.458951E-02
 curvature: -11.83 expect dE=-0.352E-02 dE for cont linesearch -0.224E-02
 ZBRENT: increasing intervall
 opt :  46.0000  next Energy=   -56.726000 (dE=-0.909E-02)
 bond charge predicted
       N       E                     dE             d eps       ncg     rms          rms(c)
DAV:   1    -0.567176514596E+02    0.38542E-02   -0.73608E+00   160   0.804E+00    0.519E-01
DAV:   2    -0.567580114765E+02   -0.40360E-01   -0.46159E-01   260   0.277E+00    0.168E+00
DAV:   3    -0.567320573653E+02    0.25954E-01   -0.36066E-01   240   0.252E+00    0.424E-01
DAV:   4    -0.567270552959E+02    0.50021E-02   -0.18942E-02   220   0.446E-01    0.173E-01
DAV:   5    -0.567264857062E+02    0.56959E-03   -0.26147E-03   260   0.328E-01    0.158E-01
DAV:   6    -0.567261835198E+02    0.30219E-03   -0.20106E-03   260   0.326E-01    0.982E-02
DAV:   7    -0.567261498981E+02    0.33622E-04   -0.10563E-03   280   0.218E-01    0.884E-02
DAV:   8    -0.567260832741E+02    0.66624E-04   -0.30370E-04   260   0.129E-01    0.507E-02
DAV:   9    -0.567260638802E+02    0.19394E-04   -0.32995E-05   120   0.438E-02    0.360E-02
DAV:  10    -0.567260536662E+02    0.10214E-04   -0.70885E-05   160   0.398E-02    0.108E-02
DAV:  11    -0.567260546512E+02   -0.98497E-06   -0.68159E-06   100   0.211E-02
   6 F= -.56726055E+02 E0= -.56672605E+02  d E =-.914154E-02
 curvature: -23.75 expect dE=-0.146E-01 dE for cont linesearch -0.340E-02
 ZBRENT: increasing intervall
 opt :  94.0000  next Energy=   -56.733270 (dE=-0.164E-01)
 bond charge predicted
       N       E                     dE             d eps       ncg     rms          rms(c)
DAV:   1    -0.566905657264E+02    0.35488E-01   -0.29427E+01   160   0.162E+01    0.978E-01
DAV:   2    -0.568304359339E+02   -0.13987E+00   -0.15842E+00   260   0.542E+00    0.291E+00
DAV:   3    -0.567550173320E+02    0.75419E-01   -0.11400E+00   240   0.450E+00    0.855E-01
DAV:   4    -0.567382553538E+02    0.16762E-01   -0.56418E-02   240   0.858E-01    0.375E-01
DAV:   5    -0.567361595505E+02    0.20958E-02   -0.12490E-02   260   0.725E-01    0.358E-01
DAV:   6    -0.567344857983E+02    0.16738E-02   -0.12553E-02   260   0.730E-01    0.199E-01
DAV:   7    -0.567341518738E+02    0.33392E-03   -0.45703E-03   300   0.470E-01    0.152E-01
DAV:   8    -0.567339507866E+02    0.20109E-03   -0.10539E-03   300   0.254E-01    0.856E-02
DAV:   9    -0.567339097516E+02    0.41035E-04   -0.23829E-04   240   0.123E-01    0.716E-02
DAV:  10    -0.567338691982E+02    0.40553E-04   -0.20761E-04   240   0.821E-02    0.280E-02
DAV:  11    -0.567338674935E+02    0.17047E-05   -0.27570E-05   140   0.469E-02
   7 F= -.56733867E+02 E0= -.56682532E+02  d E =-.169544E-01
 curvature: -50.33 expect dE=-0.108E+00 dE for cont linesearch -0.507E-02
 ZBRENT: increasing intervall
 opt : 190.0000  next Energy=   -56.745332 (dE=-0.284E-01)
 bond charge predicted
       N       E                     dE             d eps       ncg     rms          rms(c)
DAV:   1    -0.564905103159E+02    0.24336E+00   -0.11794E+02   160   0.329E+01    0.176E+00
DAV:   2    -0.569337619857E+02   -0.44325E+00   -0.49351E+00   240   0.104E+01    0.398E+00
DAV:   3    -0.568194216864E+02    0.11434E+00   -0.25366E+00   280   0.668E+00    0.175E+00
DAV:   4    -0.567644445552E+02    0.54977E-01   -0.13563E-01   240   0.174E+00    0.869E-01
DAV:   5    -0.567582540161E+02    0.61905E-02   -0.56668E-02   260   0.157E+00    0.872E-01
DAV:   6    -0.567473161680E+02    0.10938E-01   -0.67808E-02   260   0.169E+00    0.388E-01
DAV:   7    -0.567450027058E+02    0.23135E-02   -0.17621E-02   300   0.109E+00    0.202E-01
DAV:   8    -0.567445072966E+02    0.49541E-03   -0.34461E-03   260   0.430E-01    0.106E-01
DAV:   9    -0.567444999155E+02    0.73812E-05   -0.13527E-03   240   0.279E-01    0.951E-02
DAV:  10    -0.567444320431E+02    0.67872E-04   -0.61785E-04   240   0.185E-01    0.365E-02
DAV:  11    -0.567444551113E+02   -0.23068E-04   -0.10692E-04   220   0.808E-02    0.213E-02
DAV:  12    -0.567445200519E+02   -0.64941E-04   -0.28963E-05   120   0.326E-02    0.947E-03
DAV:  13    -0.567445735973E+02   -0.53545E-04   -0.12778E-05   120   0.234E-02    0.625E-03
DAV:  14    -0.567446195945E+02   -0.45997E-04   -0.12053E-05   140   0.194E-02    0.221E-03
DAV:  15    -0.567446500836E+02   -0.30489E-04   -0.32091E-06   140   0.917E-03    0.168E-03
DAV:  16    -0.567446856305E+02   -0.35547E-04   -0.40021E-06   100   0.860E-03    0.128E-03
DAV:  17    -0.567447248650E+02   -0.39234E-04   -0.93150E-06   140   0.774E-03    0.959E-04
DAV:  18    -0.567447410552E+02   -0.16190E-04   -0.20965E-06   120   0.525E-03    0.870E-04
DAV:  19    -0.567447531037E+02   -0.12048E-04   -0.23808E-06   120   0.565E-03    0.620E-04
DAV:  20    -0.567447587287E+02   -0.56250E-05   -0.21012E-06   120   0.497E-03
   8 F= -.56744759E+02 E0= -.56697588E+02  d E =-.278456E-01
 curvature: ****** expect dE=-0.100E+01 dE for cont linesearch -0.293E-02
 ZBRENT: increasing intervall
 opt : 382.0000  next Energy=   -56.745073 (dE=-0.282E-01)
 bond charge predicted
       N       E                     dE             d eps       ncg     rms          rms(c)
DAV:   1    -0.555068264560E+02    0.12379E+01   -0.48490E+02   180   0.695E+01    0.293E+00
DAV:   2    -0.569576901351E+02   -0.14509E+01   -0.15645E+01   260   0.181E+01    0.315E+00
DAV:   3    -0.568589719319E+02    0.98718E-01   -0.12665E+00   240   0.680E+00    0.238E+00
DAV:   4    -0.567827780961E+02    0.76194E-01   -0.33878E-01   260   0.341E+00    0.154E+00
DAV:   5    -0.567660493136E+02    0.16729E-01   -0.29196E-01   260   0.304E+00    0.151E+00
DAV:   6    -0.567322247511E+02    0.33825E-01   -0.23248E-01   240   0.326E+00    0.628E-01
DAV:   7    -0.567260401248E+02    0.61846E-02   -0.41049E-02   260   0.149E+00    0.296E-01
DAV:   8    -0.567243678128E+02    0.16723E-02   -0.70994E-03   260   0.697E-01    0.175E-01
DAV:   9    -0.567242477877E+02    0.12003E-03   -0.60590E-03   260   0.477E-01    0.140E-01
DAV:  10    -0.567239840515E+02    0.26374E-03   -0.19203E-03   260   0.325E-01    0.409E-02
DAV:  11    -0.567240910068E+02   -0.10696E-03   -0.24963E-04   220   0.984E-02    0.246E-02
DAV:  12    -0.567242117411E+02   -0.12073E-03   -0.70002E-05   160   0.676E-02    0.124E-02
DAV:  13    -0.567243381924E+02   -0.12645E-03   -0.17975E-05   120   0.307E-02    0.691E-03
DAV:  14    -0.567244402636E+02   -0.10207E-03   -0.16902E-05   140   0.240E-02    0.346E-03
DAV:  15    -0.567245957999E+02   -0.15554E-03   -0.22202E-05   140   0.135E-02    0.213E-03
DAV:  16    -0.567247130130E+02   -0.11721E-03   -0.16876E-05   140   0.112E-02    0.208E-03
DAV:  17    -0.567248018094E+02   -0.88796E-04   -0.16756E-05   140   0.117E-02    0.141E-03
DAV:  18    -0.567248401528E+02   -0.38343E-04   -0.62354E-06   120   0.863E-03    0.814E-04
DAV:  19    -0.567248593254E+02   -0.19173E-04   -0.39173E-06   120   0.700E-03    0.689E-04
DAV:  20    -0.567248650975E+02   -0.57721E-05   -0.16294E-06   140   0.558E-03
   9 F= -.56724865E+02 E0= -.56686533E+02  d E =-.795199E-02
 curvature: -12.23 expect dE=-0.443E+00 dE for cont linesearch -0.883E-02
 ZBRENT: bracketing found
 ZBRENT: interpolating
 opt : 220.4947  next Energy=   -56.745900 (dE=-0.290E-01)
 bond charge predicted
       N       E                     dE             d eps       ncg     rms          rms(c)
DAV:   1    -0.558669198976E+02    0.85794E+00   -0.33863E+02   160   0.569E+01    0.353E+00
DAV:   2    -0.575114595448E+02   -0.16445E+01   -0.18593E+01   240   0.226E+01    0.560E+00
DAV:   3    -0.568453732587E+02    0.66609E+00   -0.28030E+00   280   0.137E+01    0.190E+00
DAV:   4    -0.567974784641E+02    0.47895E-01   -0.32423E-01   240   0.318E+00    0.153E+00
DAV:   5    -0.567787220396E+02    0.18756E-01   -0.18541E-01   260   0.244E+00    0.126E+00
DAV:   6    -0.567584762886E+02    0.20246E-01   -0.16551E-01   260   0.226E+00    0.865E-01
DAV:   7    -0.567514456723E+02    0.70306E-02   -0.10240E-01   300   0.215E+00    0.628E-01
DAV:   8    -0.567477390326E+02    0.37066E-02   -0.25020E-02   260   0.104E+00    0.252E-01
DAV:   9    -0.567466183263E+02    0.11207E-02   -0.60163E-03   300   0.539E-01    0.161E-01
DAV:  10    -0.567462263178E+02    0.39201E-03   -0.18540E-03   240   0.303E-01    0.679E-02
DAV:  11    -0.567461845007E+02    0.41817E-04   -0.55897E-04   240   0.145E-01    0.310E-02
DAV:  12    -0.567462714122E+02   -0.86912E-04   -0.81740E-05   180   0.639E-02    0.147E-02
DAV:  13    -0.567463425920E+02   -0.71180E-04   -0.24036E-05   140   0.426E-02    0.666E-03
DAV:  14    -0.567463964861E+02   -0.53894E-04   -0.14439E-05   120   0.207E-02    0.367E-03
DAV:  15    -0.567464377420E+02   -0.41256E-04   -0.79255E-06   120   0.156E-02    0.262E-03
DAV:  16    -0.567464919800E+02   -0.54238E-04   -0.18903E-05   140   0.136E-02    0.243E-03
DAV:  17    -0.567465214187E+02   -0.29439E-04   -0.82613E-06   140   0.919E-03    0.148E-03
DAV:  18    -0.567465401966E+02   -0.18778E-04   -0.64035E-06   120   0.847E-03    0.131E-03
DAV:  19    -0.567465461008E+02   -0.59042E-05   -0.53214E-06   160   0.719E-03
  10 F= -.56746546E+02 E0= -.56700795E+02  d E =-.296330E-01
 curvature:  -1.58 expect dE=-0.189E-01 dE for cont linesearch -0.132E-04
 trial: gam=54.56760 g(F)=  0.119E-01 g(S)=  0.000E+00 ort = 0.426E-04 (trialstep = 0.147E-01)
 search vector abs. value=  0.665E+00
 bond charge predicted
       N       E                     dE             d eps       ncg     rms          rms(c)
DAV:   1    -0.567467480228E+02   -0.20783E-03   -0.84573E-03   160   0.271E-01    0.141E-02
DAV:   2    -0.567467709065E+02   -0.22884E-04   -0.22954E-04   260   0.702E-02    0.305E-02
DAV:   3    -0.567467604159E+02    0.10491E-04   -0.10189E-04   120   0.550E-02    0.120E-02
DAV:   4    -0.567467583993E+02    0.20166E-05   -0.11837E-05    80   0.172E-02
  11 F= -.56746758E+02 E0= -.56701037E+02  d E =-.212298E-03
 ZBRENT: can't locate minimum, use default step
 trial-energy change:   -0.000212  1 .order   -0.000209   -0.000210   -0.000209
 step:   0.0588(harm=  3.1027)  dis= 0.00279  next Energy=   -56.768657 (dE=-0.221E-01)
 bond charge predicted
       N       E                     dE             d eps       ncg     rms          rms(c)
DAV:   1    -0.567473052749E+02   -0.54486E-03   -0.76284E-02   160   0.814E-01    0.442E-02
DAV:   2    -0.567475160224E+02   -0.21075E-03   -0.21124E-03   260   0.211E-01    0.971E-02
DAV:   3    -0.567474149601E+02    0.10106E-03   -0.10309E-03   220   0.171E-01    0.364E-02
DAV:   4    -0.567473926019E+02    0.22358E-04   -0.97198E-05   160   0.467E-02    0.197E-02
DAV:   5    -0.567473874853E+02    0.51166E-05   -0.48334E-05   160   0.490E-02
  12 F= -.56747387E+02 E0= -.56701913E+02  d E =-.841385E-03
 curvature:  -2.05 expect dE=-0.248E-01 dE for cont linesearch -0.637E-03
 ZBRENT: increasing intervall
 opt :   0.1470  next Energy=   -56.748670 (dE=-0.212E-02)
 bond charge predicted
       N       E                     dE             d eps       ncg     rms          rms(c)
DAV:   1    -0.567482999965E+02   -0.90739E-03   -0.30480E-01   160   0.163E+00    0.855E-02
DAV:   2    -0.567491004961E+02   -0.80050E-03   -0.81998E-03   260   0.406E-01    0.180E-01
DAV:   3    -0.567487493653E+02    0.35113E-03   -0.39018E-03   220   0.334E-01    0.726E-02
DAV:   4    -0.567486737146E+02    0.75651E-04   -0.42295E-04   260   0.946E-02    0.392E-02
DAV:   5    -0.567486554796E+02    0.18235E-04   -0.15979E-04   240   0.881E-02    0.322E-02
DAV:   6    -0.567486490693E+02    0.64103E-05   -0.10865E-04   200   0.714E-02    0.235E-02
DAV:   7    -0.567486392514E+02    0.98179E-05   -0.43010E-05   120   0.501E-02
  13 F= -.56748639E+02 E0= -.56703395E+02  d E =-.209315E-02
 curvature:  -4.14 expect dE=-0.509E-01 dE for cont linesearch -0.130E-02
 ZBRENT: increasing intervall
 opt :   0.3235  next Energy=   -56.751214 (dE=-0.467E-02)
 bond charge predicted
       N       E                     dE             d eps       ncg     rms          rms(c)
DAV:   1    -0.567497650378E+02   -0.11160E-02   -0.12176E+00   160   0.325E+00    0.164E-01
DAV:   2    -0.567527132346E+02   -0.29482E-02   -0.30172E-02   220   0.789E-01    0.331E-01
DAV:   3    -0.567515870212E+02    0.11262E-02   -0.13489E-02   240   0.622E-01    0.144E-01
DAV:   4    -0.567512789510E+02    0.30807E-03   -0.15562E-03   240   0.184E-01    0.744E-02
DAV:   5    -0.567512105129E+02    0.68438E-04   -0.60955E-04   260   0.164E-01    0.617E-02
DAV:   6    -0.567511775787E+02    0.32934E-04   -0.40555E-04   240   0.135E-01    0.398E-02
DAV:   7    -0.567511506644E+02    0.26914E-04   -0.12331E-04   140   0.944E-02    0.162E-02
DAV:   8    -0.567511486215E+02    0.20430E-05   -0.31000E-05   120   0.396E-02
  14 F= -.56751149E+02 E0= -.56706391E+02  d E =-.460252E-02
 curvature:  -8.17 expect dE=-0.104E+00 dE for cont linesearch -0.247E-02
 ZBRENT: increasing intervall
 opt :   0.6763  next Energy=   -56.756052 (dE=-0.951E-02)
 bond charge predicted
       N       E                     dE             d eps       ncg     rms          rms(c)
DAV:   1    -0.567501707759E+02    0.97989E-03   -0.48694E+00   160   0.651E+00    0.318E-01
DAV:   2    -0.567610929612E+02   -0.10922E-01   -0.11383E-01   240   0.152E+00    0.582E-01
DAV:   3    -0.567578473709E+02    0.32456E-02   -0.44513E-02   240   0.115E+00    0.291E-01
DAV:   4    -0.567566314896E+02    0.12159E-02   -0.56322E-03   240   0.351E-01    0.147E-01
DAV:   5    -0.567564160839E+02    0.21541E-03   -0.24227E-03   260   0.330E-01    0.132E-01
DAV:   6    -0.567562274066E+02    0.18868E-03   -0.17810E-03   240   0.277E-01    0.748E-02
DAV:   7    -0.567561401397E+02    0.87267E-04   -0.55381E-04   300   0.183E-01    0.335E-02
DAV:   8    -0.567561275722E+02    0.12568E-04   -0.11052E-04   180   0.725E-02    0.177E-02
DAV:   9    -0.567561252693E+02    0.23028E-05   -0.27698E-05   120   0.390E-02
  15 F= -.56756125E+02 E0= -.56712569E+02  d E =-.957917E-02
 curvature: -16.20 expect dE=-0.222E+00 dE for cont linesearch -0.480E-02
 ZBRENT: increasing intervall
 opt :   1.3821  next Energy=   -56.765923 (dE=-0.194E-01)
 bond charge predicted
       N       E                     dE             d eps       ncg     rms          rms(c)
DAV:   1    -0.567367452543E+02    0.19382E-01   -0.19462E+01   160   0.131E+01    0.613E-01
DAV:   2    -0.567776583851E+02   -0.40913E-01   -0.44130E-01   240   0.312E+00    0.836E-01
DAV:   3    -0.567724004780E+02    0.52579E-02   -0.11368E-01   240   0.188E+00    0.602E-01
DAV:   4    -0.567674892290E+02    0.49112E-02   -0.21359E-02   260   0.723E-01    0.293E-01
DAV:   5    -0.567670440945E+02    0.44513E-03   -0.10280E-02   260   0.667E-01    0.301E-01
DAV:   6    -0.567657389684E+02    0.13051E-02   -0.85943E-03   240   0.594E-01    0.128E-01
DAV:   7    -0.567654844699E+02    0.25450E-03   -0.17840E-03   280   0.335E-01    0.646E-02
DAV:   8    -0.567654403261E+02    0.44144E-04   -0.47801E-04   240   0.142E-01    0.397E-02
DAV:   9    -0.567654232771E+02    0.17049E-04   -0.17956E-04   200   0.875E-02    0.221E-02
DAV:  10    -0.567654311140E+02   -0.78369E-05   -0.36553E-05   120   0.502E-02
  16 F= -.56765431E+02 E0= -.56724082E+02  d E =-.188850E-01
 curvature: -33.08 expect dE=-0.521E+00 dE for cont linesearch -0.709E-02
 ZBRENT: increasing intervall
 opt :   2.7936  next Energy=   -56.779322 (dE=-0.328E-01)
 bond charge predicted
       N       E                     dE             d eps       ncg     rms          rms(c)
DAV:   1    -0.566165747630E+02    0.14885E+00   -0.77870E+01   160   0.264E+01    0.124E+00
DAV:   2    -0.568078104948E+02   -0.19124E+00   -0.21069E+00   240   0.712E+00    0.106E+00
DAV:   3    -0.567919139863E+02    0.15897E-01   -0.93631E-02   260   0.202E+00    0.817E-01
DAV:   4    -0.567861712770E+02    0.57427E-02   -0.58052E-02   260   0.146E+00    0.660E-01
DAV:   5    -0.567831549371E+02    0.30163E-02   -0.71172E-02   240   0.136E+00    0.622E-01
DAV:   6    -0.567778185868E+02    0.53364E-02   -0.32892E-02   240   0.119E+00    0.213E-01
DAV:   7    -0.567770570266E+02    0.76156E-03   -0.54325E-03   280   0.556E-01    0.110E-01
DAV:   8    -0.567768978854E+02    0.15914E-03   -0.14279E-03   220   0.245E-01    0.741E-02
DAV:   9    -0.567768255927E+02    0.72293E-04   -0.69769E-04   260   0.174E-01    0.289E-02
DAV:  10    -0.567768612379E+02   -0.35645E-04   -0.11044E-04   160   0.707E-02    0.172E-02
DAV:  11    -0.567768859594E+02   -0.24722E-04   -0.19122E-05   120   0.436E-02    0.829E-03
DAV:  12    -0.567769322704E+02   -0.46311E-04   -0.22313E-05   140   0.207E-02    0.440E-03
DAV:  13    -0.567769586203E+02   -0.26350E-04   -0.45800E-06   120   0.164E-02    0.217E-03
DAV:  14    -0.567769888906E+02   -0.30270E-04   -0.40420E-06   120   0.829E-03    0.132E-03
DAV:  15    -0.567770226070E+02   -0.33716E-04   -0.51047E-06   120   0.734E-03    0.115E-03
DAV:  16    -0.567770462319E+02   -0.23625E-04   -0.44632E-06   120   0.767E-03    0.884E-04
DAV:  17    -0.567770655560E+02   -0.19324E-04   -0.83201E-06   140   0.749E-03    0.628E-04
DAV:  18    -0.567770735591E+02   -0.80031E-05   -0.15795E-06   120   0.406E-03
  17 F= -.56777074E+02 E0= -.56739860E+02  d E =-.305275E-01
 curvature: -64.82 expect dE=-0.132E+01 dE for cont linesearch -0.738E-03
 trial: gam= 0.44566 g(F)=  0.204E-01 g(S)=  0.000E+00 ort = 0.275E-02 (trialstep = 0.570E+00)
 search vector abs. value=  0.155E+00
 bond charge predicted
       N       E                     dE             d eps       ncg     rms          rms(c)
DAV:   1    -0.567852747058E+02   -0.82091E-02   -0.29722E+00   160   0.509E+00    0.218E-01
DAV:   2    -0.567902209503E+02   -0.49462E-02   -0.52480E-02   220   0.107E+00    0.252E-01
DAV:   3    -0.567894688214E+02    0.75213E-03   -0.74435E-03   260   0.657E-01    0.164E-01
DAV:   4    -0.567891456963E+02    0.32313E-03   -0.17217E-03   260   0.238E-01    0.117E-01
DAV:   5    -0.567890544943E+02    0.91202E-04   -0.17987E-03   240   0.239E-01    0.107E-01
DAV:   6    -0.567889370792E+02    0.11742E-03   -0.14953E-03   240   0.181E-01    0.514E-02
DAV:   7    -0.567888930215E+02    0.44058E-04   -0.34658E-04   260   0.118E-01    0.197E-02
DAV:   8    -0.567888869652E+02    0.60563E-05   -0.55367E-05   120   0.540E-02
  18 F= -.56788887E+02 E0= -.56752568E+02  d E =-.118134E-01
 ZBRENT: can't locate minimum, use default step
 trial-energy change:   -0.011813  1 .order   -0.011757   -0.012320   -0.011195
 step:   2.2819(harm=  6.2487)  dis= 0.05156  next Energy=   -56.844546 (dE=-0.675E-01)
 bond charge predicted
       N       E                     dE             d eps       ncg     rms          rms(c)
DAV:   1    -0.567754197087E+02    0.13473E-01   -0.26698E+01   160   0.153E+01    0.684E-01
DAV:   2    -0.568282656807E+02   -0.52846E-01   -0.57385E-01   240   0.374E+00    0.671E-01
DAV:   3    -0.568223005122E+02    0.59652E-02   -0.40716E-02   240   0.172E+00    0.474E-01
DAV:   4    -0.568195941822E+02    0.27063E-02   -0.11614E-02   240   0.737E-01    0.333E-01
DAV:   5    -0.568195505461E+02    0.43636E-04   -0.16801E-02   240   0.794E-01    0.382E-01
DAV:   6    -0.568177398389E+02    0.18107E-02   -0.16008E-02   240   0.682E-01    0.168E-01
DAV:   7    -0.568172987905E+02    0.44105E-03   -0.40232E-03   260   0.351E-01    0.647E-02
DAV:   8    -0.568172453004E+02    0.53490E-04   -0.69672E-04   240   0.164E-01    0.448E-02
DAV:   9    -0.568172063918E+02    0.38909E-04   -0.22405E-04   240   0.106E-01    0.178E-02
DAV:  10    -0.568172113183E+02   -0.49265E-05   -0.31879E-05   100   0.469E-02
  19 F= -.56817211E+02 E0= -.56783126E+02  d E =-.401378E-01
 curvature: -11.47 expect dE=-0.143E+00 dE for cont linesearch -0.126E-01
 ZBRENT: increasing intervall
 opt :   5.7047  next Energy=   -56.839177 (dE=-0.621E-01)
 bond charge predicted
       N       E                     dE             d eps       ncg     rms          rms(c)
DAV:   1    -0.566039138785E+02    0.21329E+00   -0.10684E+02   160   0.310E+01    0.147E+00
DAV:   2    -0.568862027276E+02   -0.28229E+00   -0.30778E+00   240   0.902E+00    0.143E+00
DAV:   3    -0.568563025137E+02    0.29900E-01   -0.14691E-01   260   0.341E+00    0.943E-01
DAV:   4    -0.568458017363E+02    0.10501E-01   -0.42809E-02   240   0.147E+00    0.708E-01
DAV:   5    -0.568404224974E+02    0.53792E-02   -0.75832E-02   240   0.146E+00    0.598E-01
DAV:   6    -0.568356495644E+02    0.47729E-02   -0.45375E-02   240   0.137E+00    0.276E-01
DAV:   7    -0.568347550033E+02    0.89456E-03   -0.85500E-03   240   0.622E-01    0.152E-01
DAV:   8    -0.568343227163E+02    0.43229E-03   -0.21372E-03   260   0.305E-01    0.804E-02
DAV:   9    -0.568341965293E+02    0.12619E-03   -0.69361E-04   220   0.204E-01    0.299E-02
DAV:  10    -0.568342201258E+02   -0.23596E-04   -0.12074E-04   220   0.606E-02    0.144E-02
DAV:  11    -0.568342527536E+02   -0.32628E-04   -0.19504E-05   100   0.405E-02    0.104E-02
DAV:  12    -0.568342982921E+02   -0.45538E-04   -0.23279E-05   140   0.271E-02    0.422E-03
DAV:  13    -0.568343183717E+02   -0.20080E-04   -0.58736E-06   120   0.176E-02    0.265E-03
DAV:  14    -0.568343412503E+02   -0.22879E-04   -0.39392E-06   100   0.114E-02    0.150E-03
DAV:  15    -0.568343702571E+02   -0.29007E-04   -0.48378E-06   120   0.777E-03    0.116E-03
DAV:  16    -0.568344014765E+02   -0.31219E-04   -0.92431E-06   120   0.793E-03    0.800E-04
DAV:  17    -0.568344152679E+02   -0.13791E-04   -0.22638E-06   120   0.476E-03    0.630E-04
DAV:  18    -0.568344248571E+02   -0.95892E-05   -0.25229E-06   120   0.543E-03
  20 F= -.56834425E+02 E0= -.56802479E+02  d E =-.573513E-01
 curvature: -20.07 expect dE=-0.159E+00 dE for cont linesearch -0.207E-02
 ZBRENT: bracketing found
 ZBRENT: interpolating
 opt :   4.9002  next Energy=   -56.836034 (dE=-0.590E-01)
 bond charge predicted
       N       E                     dE             d eps       ncg     rms          rms(c)
DAV:   1    -0.568280523136E+02    0.63630E-02   -0.59049E+00   160   0.716E+00    0.313E-01
DAV:   2    -0.568391570834E+02   -0.11105E-01   -0.11889E-01   240   0.186E+00    0.390E-01
DAV:   3    -0.568367305310E+02    0.24266E-02   -0.13281E-02   240   0.929E-01    0.199E-01
DAV:   4    -0.568362307951E+02    0.49974E-03   -0.23709E-03   260   0.242E-01    0.147E-01
DAV:   5    -0.568362131435E+02    0.17652E-04   -0.40082E-03   240   0.348E-01    0.162E-01
DAV:   6    -0.568359107966E+02    0.30235E-03   -0.30800E-03   240   0.323E-01    0.775E-02
DAV:   7    -0.568358207753E+02    0.90021E-04   -0.51907E-04   260   0.158E-01    0.289E-02
DAV:   8    -0.568358016487E+02    0.19127E-04   -0.82207E-05   140   0.710E-02    0.182E-02
DAV:   9    -0.568357942008E+02    0.74479E-05   -0.41541E-05   180   0.445E-02
  21 F= -.56835794E+02 E0= -.56803645E+02  d E =-.587206E-01
 curvature: -15.58 expect dE=-0.124E+00 dE for cont linesearch -0.249E-04
 trial: gam=-0.06862 g(F)=  0.798E-02 g(S)=  0.000E+00 ort = 0.497E-03 (trialstep = 0.144E+01)
 search vector abs. value=  0.864E-02
 bond charge predicted
       N       E                     dE             d eps       ncg     rms          rms(c)
DAV:   1    -0.568449295757E+02   -0.91279E-02   -0.10451E+00   160   0.304E+00    0.153E-01
DAV:   2    -0.568471036690E+02   -0.21741E-02   -0.23263E-02   240   0.721E-01    0.244E-01
DAV:   3    -0.568464544004E+02    0.64927E-03   -0.60361E-03   240   0.504E-01    0.112E-01
DAV:   4    -0.568462779508E+02    0.17645E-03   -0.97635E-04   260   0.173E-01    0.623E-02
DAV:   5    -0.568462468165E+02    0.31134E-04   -0.44920E-04   240   0.142E-01    0.439E-02
DAV:   6    -0.568462278014E+02    0.19015E-04   -0.22732E-04   260   0.102E-01    0.185E-02
DAV:   7    -0.568462229362E+02    0.48652E-05   -0.40656E-05   140   0.578E-02
  22 F= -.56846223E+02 E0= -.56814184E+02  d E =-.104287E-01
 ZBRENT: can't locate minimum, use default step
 trial-energy change:   -0.010429  1 .order   -0.010408   -0.011419   -0.009397
 step:   5.7456(harm=  8.1117)  dis= 0.02867  next Energy=   -56.868036 (dE=-0.322E-01)
 bond charge predicted
       N       E                     dE             d eps       ncg     rms          rms(c)
DAV:   1    -0.568531385945E+02   -0.69108E-02   -0.94013E+00   160   0.913E+00    0.489E-01
DAV:   2    -0.568745347027E+02   -0.21396E-01   -0.23432E-01   240   0.251E+00    0.783E-01
DAV:   3    -0.568682882566E+02    0.62464E-02   -0.64218E-02   240   0.162E+00    0.379E-01
DAV:   4    -0.568662552529E+02    0.20330E-02   -0.11764E-02   260   0.605E-01    0.201E-01
DAV:   5    -0.568657808614E+02    0.47439E-03   -0.43956E-03   260   0.429E-01    0.142E-01
DAV:   6    -0.568656396600E+02    0.14120E-03   -0.27855E-03   240   0.347E-01    0.817E-02
DAV:   7    -0.568655245544E+02    0.11511E-03   -0.67316E-04   280   0.231E-01    0.349E-02
DAV:   8    -0.568655141752E+02    0.10379E-04   -0.17961E-04   240   0.101E-01    0.257E-02
DAV:   9    -0.568655062884E+02    0.78868E-05   -0.73357E-05   160   0.527E-02
  23 F= -.56865506E+02 E0= -.56832914E+02  d E =-.297121E-01
 curvature:  -3.86 expect dE=-0.739E-02 dE for cont linesearch -0.253E-02
 ZBRENT: increasing intervall
 opt :  14.3641  next Energy=   -56.850138 (dE=-0.143E-01)
 bond charge predicted
       N       E                     dE             d eps       ncg     rms          rms(c)
DAV:   1    -0.567927256998E+02    0.72788E-01   -0.37628E+01   160   0.184E+01    0.110E+00
DAV:   2    -0.568869674978E+02   -0.94242E-01   -0.11464E+00   240   0.606E+00    0.139E+00
DAV:   3    -0.568620433099E+02    0.24924E-01   -0.25998E-01   260   0.360E+00    0.731E-01
DAV:   4    -0.568555526339E+02    0.64907E-02   -0.52288E-02   260   0.132E+00    0.526E-01
DAV:   5    -0.568534174724E+02    0.21352E-02   -0.30529E-02   260   0.931E-01    0.395E-01
DAV:   6    -0.568531795602E+02    0.23791E-03   -0.24605E-02   260   0.945E-01    0.338E-01
DAV:   7    -0.568513540754E+02    0.18255E-02   -0.10403E-02   280   0.753E-01    0.893E-02
DAV:   8    -0.568512262003E+02    0.12788E-03   -0.12791E-03   260   0.268E-01    0.581E-02
DAV:   9    -0.568511804310E+02    0.45769E-04   -0.42366E-04   240   0.130E-01    0.283E-02
DAV:  10    -0.568511932503E+02   -0.12819E-04   -0.11357E-04   240   0.836E-02    0.158E-02
DAV:  11    -0.568512172805E+02   -0.24030E-04   -0.18515E-05   100   0.331E-02    0.546E-03
DAV:  12    -0.568512496676E+02   -0.32387E-04   -0.11049E-05   120   0.160E-02    0.311E-03
DAV:  13    -0.568512663702E+02   -0.16703E-04   -0.47989E-06   140   0.142E-02    0.186E-03
DAV:  14    -0.568512823638E+02   -0.15994E-04   -0.43626E-06   100   0.954E-03    0.152E-03
DAV:  15    -0.568513018210E+02   -0.19457E-04   -0.94431E-06   140   0.849E-03    0.114E-03
DAV:  16    -0.568513088849E+02   -0.70639E-05   -0.16177E-06   120   0.497E-03
  24 F= -.56851309E+02 E0= -.56815283E+02  d E =-.155147E-01
 curvature:  23.47 expect dE= 0.245E+00 dE for cont linesearch  0.881E-01
 ZBRENT: bracketing found
 ZBRENT: interpolating
 opt :   8.2849  next Energy=   -56.868527 (dE=-0.327E-01)
 bond charge predicted
       N       E                     dE             d eps       ncg     rms          rms(c)
DAV:   1    -0.568418541573E+02    0.94477E-02   -0.18712E+01   160   0.129E+01    0.686E-01
DAV:   2    -0.568779544407E+02   -0.36100E-01   -0.42274E-01   260   0.296E+00    0.688E-01
DAV:   3    -0.568730941383E+02    0.48603E-02   -0.67861E-02   240   0.201E+00    0.514E-01
DAV:   4    -0.568700519771E+02    0.30422E-02   -0.20445E-02   260   0.867E-01    0.304E-01
DAV:   5    -0.568698964043E+02    0.15557E-03   -0.14779E-02   260   0.697E-01    0.302E-01
DAV:   6    -0.568689590723E+02    0.93733E-03   -0.11021E-02   240   0.638E-01    0.142E-01
DAV:   7    -0.568685879948E+02    0.37108E-03   -0.21644E-03   300   0.360E-01    0.520E-02
DAV:   8    -0.568685599805E+02    0.28014E-04   -0.43193E-04   280   0.151E-01    0.356E-02
DAV:   9    -0.568685417490E+02    0.18232E-04   -0.12740E-04   220   0.810E-02    0.132E-02
DAV:  10    -0.568685478624E+02   -0.61134E-05   -0.29687E-05   140   0.439E-02
  25 F= -.56868548E+02 E0= -.56835086E+02  d E =-.327537E-01
 curvature:  -0.80 expect dE=-0.187E-02 dE for cont linesearch -0.529E-09
 trial: gam= 0.28532 g(F)=  0.233E-02 g(S)=  0.000E+00 ort =-0.238E-05 (trialstep = 0.281E+01)
 search vector abs. value=  0.303E-02
 bond charge predicted
       N       E                     dE             d eps       ncg     rms          rms(c)
DAV:   1    -0.568724217077E+02   -0.38800E-02   -0.13912E+00   160   0.355E+00    0.171E-01
DAV:   2    -0.568755749116E+02   -0.31532E-02   -0.32200E-02   240   0.873E-01    0.296E-01
DAV:   3    -0.568745335562E+02    0.10414E-02   -0.98472E-03   240   0.665E-01    0.134E-01
DAV:   4    -0.568743144387E+02    0.21912E-03   -0.12075E-03   280   0.183E-01    0.775E-02
DAV:   5    -0.568742741781E+02    0.40261E-04   -0.56370E-04   260   0.161E-01    0.676E-02
DAV:   6    -0.568742455977E+02    0.28580E-04   -0.48923E-04   260   0.144E-01    0.342E-02
DAV:   7    -0.568742232731E+02    0.22325E-04   -0.92368E-05   200   0.928E-02    0.929E-03
DAV:   8    -0.568742230211E+02    0.25200E-06   -0.10542E-05   140   0.203E-02
  26 F= -.56874223E+02 E0= -.56841327E+02  d E =-.567516E-02
 trial-energy change:   -0.005675  1 .order   -0.005621   -0.006524   -0.004717
 step:   7.7011(harm= 10.1313)  dis= 0.01857  next Energy=   -56.878627 (dE=-0.101E-01)
 bond charge predicted
       N       E                     dE             d eps       ncg     rms          rms(c)
DAV:   1    -0.568741095303E+02    0.11374E-03   -0.42294E+00   160   0.618E+00    0.301E-01
DAV:   2    -0.568836783047E+02   -0.95688E-02   -0.98865E-02   240   0.157E+00    0.503E-01
DAV:   3    -0.568807803549E+02    0.28979E-02   -0.28917E-02   240   0.115E+00    0.240E-01
DAV:   4    -0.568800510552E+02    0.72930E-03   -0.38156E-03   260   0.327E-01    0.135E-01
DAV:   5    -0.568799220971E+02    0.12896E-03   -0.17059E-03   280   0.276E-01    0.120E-01
DAV:   6    -0.568798088751E+02    0.11322E-03   -0.15453E-03   280   0.258E-01    0.633E-02
DAV:   7    -0.568797277988E+02    0.81076E-04   -0.32646E-04   260   0.170E-01    0.174E-02
DAV:   8    -0.568797206820E+02    0.71169E-05   -0.28561E-05   140   0.391E-02
  27 F= -.56879721E+02 E0= -.56847702E+02  d E =-.111728E-01
 curvature:  -5.87 expect dE=-0.939E-02 dE for cont linesearch -0.537E-03
 ZBRENT: extrapolating
 opt :   9.9307  next Energy=   -56.880307 (dE=-0.118E-01)
 bond charge predicted
       N       E                     dE             d eps       ncg     rms          rms(c)
DAV:   1    -0.568792173062E+02    0.51049E-03   -0.87703E-01   160   0.281E+00    0.137E-01
DAV:   2    -0.568811897051E+02   -0.19724E-02   -0.20377E-02   240   0.700E-01    0.228E-01
DAV:   3    -0.568805588625E+02    0.63084E-03   -0.59787E-03   240   0.527E-01    0.105E-01
DAV:   4    -0.568804249768E+02    0.13389E-03   -0.78032E-04   280   0.146E-01    0.607E-02
DAV:   5    -0.568803997299E+02    0.25247E-04   -0.35591E-04   240   0.127E-01    0.526E-02
DAV:   6    -0.568803814730E+02    0.18257E-04   -0.29766E-04   280   0.113E-01    0.265E-02
DAV:   7    -0.568803665350E+02    0.14938E-04   -0.41943E-05   120   0.713E-02    0.709E-03
DAV:   8    -0.568803680883E+02   -0.15532E-05   -0.19907E-05   120   0.204E-02
  28 F= -.56880368E+02 E0= -.56848763E+02  d E =-.118202E-01
 curvature:  -6.42 expect dE=-0.158E-01 dE for cont linesearch -0.663E-06
 trial: gam= 1.02668 g(F)=  0.246E-02 g(S)=  0.000E+00 ort = 0.177E-04 (trialstep = 0.225E+01)
 search vector abs. value=  0.569E-02
 bond charge predicted
       N       E                     dE             d eps       ncg     rms          rms(c)
DAV:   1    -0.568830848203E+02   -0.27183E-02   -0.16932E+00   160   0.389E+00    0.165E-01
DAV:   2    -0.568859763832E+02   -0.28916E-02   -0.30946E-02   240   0.862E-01    0.179E-01
DAV:   3    -0.568856182258E+02    0.35816E-03   -0.38419E-03   220   0.495E-01    0.133E-01
DAV:   4    -0.568854336285E+02    0.18460E-03   -0.11918E-03   260   0.192E-01    0.806E-02
DAV:   5    -0.568853675470E+02    0.66082E-04   -0.52800E-04   260   0.150E-01    0.605E-02
DAV:   6    -0.568853584462E+02    0.91008E-05   -0.50310E-04   240   0.151E-01    0.447E-02
DAV:   7    -0.568853188018E+02    0.39644E-04   -0.19205E-04   200   0.111E-01    0.122E-02
DAV:   8    -0.568853157507E+02    0.30511E-05   -0.20820E-05   100   0.267E-02
  29 F= -.56885316E+02 E0= -.56853799E+02  d E =-.494766E-02
 ZBRENT: can't locate minimum, use default step
 trial-energy change:   -0.004948  1 .order   -0.004930   -0.005588   -0.004271
 step:   9.0020(harm=  9.5528)  dis= 0.02790  next Energy=   -56.892227 (dE=-0.119E-01)
 bond charge predicted
       N       E                     dE             d eps       ncg     rms          rms(c)
DAV:   1    -0.568694168467E+02    0.15902E-01   -0.15228E+01   160   0.117E+01    0.517E-01
DAV:   2    -0.568984619037E+02   -0.29045E-01   -0.31551E-01   240   0.290E+00    0.540E-01
DAV:   3    -0.568953177246E+02    0.31442E-02   -0.34331E-02   240   0.149E+00    0.411E-01
DAV:   4    -0.568935383066E+02    0.17794E-02   -0.10662E-02   260   0.573E-01    0.251E-01
DAV:   5    -0.568929401356E+02    0.59817E-03   -0.47749E-03   260   0.454E-01    0.200E-01
DAV:   6    -0.568926135200E+02    0.32662E-03   -0.45255E-03   240   0.440E-01    0.120E-01
DAV:   7    -0.568923622890E+02    0.25123E-03   -0.15334E-03   260   0.311E-01    0.411E-02
DAV:   8    -0.568923226725E+02    0.39617E-04   -0.18881E-04   200   0.816E-02    0.230E-02
DAV:   9    -0.568923106348E+02    0.12038E-04   -0.31603E-05   120   0.540E-02    0.138E-02
DAV:  10    -0.568923124973E+02   -0.18625E-05   -0.49361E-05   180   0.309E-02
  30 F= -.56892312E+02 E0= -.56861089E+02  d E =-.119444E-01
 curvature: -10.89 expect dE=-0.175E-01 dE for cont linesearch -0.262E-04
 trial: gam= 0.59078 g(F)=  0.160E-02 g(S)=  0.000E+00 ort = 0.117E-03 (trialstep = 0.360E+01)
 search vector abs. value=  0.373E-02
 bond charge predicted
       N       E                     dE             d eps       ncg     rms          rms(c)
DAV:   1    -0.568935548426E+02   -0.12442E-02   -0.28202E+00   160   0.502E+00    0.212E-01
DAV:   2    -0.568991727775E+02   -0.56179E-02   -0.55905E-02   240   0.116E+00    0.328E-01
DAV:   3    -0.568979330286E+02    0.12397E-02   -0.10682E-02   220   0.717E-01    0.171E-01
DAV:   4    -0.568975570410E+02    0.37599E-03   -0.20076E-03   260   0.219E-01    0.105E-01
DAV:   5    -0.568974931934E+02    0.63848E-04   -0.12797E-03   260   0.229E-01    0.913E-02
DAV:   6    -0.568973924406E+02    0.10075E-03   -0.99967E-04   240   0.219E-01    0.472E-02
DAV:   7    -0.568973585813E+02    0.33859E-04   -0.23525E-04   240   0.115E-01    0.200E-02
DAV:   8    -0.568973519316E+02    0.66497E-05   -0.36471E-05   140   0.414E-02
  31 F= -.56897352E+02 E0= -.56864950E+02  d E =-.503943E-02
 trial-energy change:   -0.005039  1 .order   -0.004972   -0.006026   -0.003918
 step:   8.2527(harm= 10.2945)  dis= 0.01796  next Energy=   -56.900028 (dE=-0.772E-02)
 bond charge predicted
       N       E                     dE             d eps       ncg     rms          rms(c)
DAV:   1    -0.568941588225E+02    0.31998E-02   -0.47020E+00   160   0.648E+00    0.290E-01
DAV:   2    -0.569045950671E+02   -0.10436E-01   -0.10069E-01   240   0.160E+00    0.496E-01
DAV:   3    -0.569016138602E+02    0.29812E-02   -0.23083E-02   220   0.105E+00    0.229E-01
DAV:   4    -0.569009205623E+02    0.69330E-03   -0.37907E-03   260   0.296E-01    0.138E-01
DAV:   5    -0.569007877910E+02    0.13277E-03   -0.20537E-03   260   0.295E-01    0.117E-01
DAV:   6    -0.569006372078E+02    0.15058E-03   -0.16659E-03   240   0.282E-01    0.676E-02
DAV:   7    -0.569005701277E+02    0.67080E-04   -0.47090E-04   280   0.163E-01    0.283E-02
DAV:   8    -0.569005575175E+02    0.12610E-04   -0.72490E-05   160   0.587E-02    0.178E-02
DAV:   9    -0.569005532595E+02    0.42580E-05   -0.31573E-05   140   0.394E-02
  32 F= -.56900553E+02 E0= -.56866592E+02  d E =-.824076E-02
 curvature: -10.40 expect dE=-0.127E-01 dE for cont linesearch -0.235E-03
 ZBRENT: extrapolating
 opt :   9.9442  next Energy=   -56.900799 (dE=-0.849E-02)
 bond charge predicted
       N       E                     dE             d eps       ncg     rms          rms(c)
DAV:   1    -0.568999963000E+02    0.56122E-03   -0.62161E-01   160   0.235E+00    0.104E-01
DAV:   2    -0.569013685263E+02   -0.13722E-02   -0.12940E-02   240   0.551E-01    0.193E-01
DAV:   3    -0.569009506969E+02    0.41783E-03   -0.33294E-03   220   0.382E-01    0.838E-02
DAV:   4    -0.569008520453E+02    0.98652E-04   -0.47868E-04   260   0.106E-01    0.485E-02
DAV:   5    -0.569008375216E+02    0.14524E-04   -0.27051E-04   260   0.110E-01    0.423E-02
DAV:   6    -0.569008191915E+02    0.18330E-04   -0.21732E-04   240   0.101E-01    0.235E-02
DAV:   7    -0.569008104538E+02    0.87377E-05   -0.47497E-05   120   0.568E-02
  33 F= -.56900810E+02 E0= -.56866215E+02  d E =-.849796E-02
 curvature: -10.87 expect dE=-0.191E-01 dE for cont linesearch -0.799E-06
 trial: gam= 1.17591 g(F)=  0.176E-02 g(S)=  0.000E+00 ort =-0.166E-04 (trialstep = 0.264E+01)
 search vector abs. value=  0.688E-02
 bond charge predicted
       N       E                     dE             d eps       ncg     rms          rms(c)
DAV:   1    -0.569015542231E+02   -0.73503E-03   -0.28212E+00   160   0.497E+00    0.217E-01
DAV:   2    -0.569076613348E+02   -0.61071E-02   -0.58731E-02   240   0.117E+00    0.401E-01
DAV:   3    -0.569058960480E+02    0.17653E-02   -0.14378E-02   240   0.740E-01    0.181E-01
DAV:   4    -0.569054182807E+02    0.47777E-03   -0.17807E-03   260   0.224E-01    0.102E-01
DAV:   5    -0.569052943921E+02    0.12389E-03   -0.89819E-04   260   0.214E-01    0.732E-02
DAV:   6    -0.569052386511E+02    0.55741E-04   -0.60418E-04   260   0.190E-01    0.439E-02
DAV:   7    -0.569052087735E+02    0.29878E-04   -0.18159E-04   240   0.105E-01    0.192E-02
DAV:   8    -0.569052013814E+02    0.73921E-05   -0.21469E-05   120   0.280E-02
  34 F= -.56905201E+02 E0= -.56869859E+02  d E =-.439093E-02
 ZBRENT: can't locate minimum, use default step
 trial-energy change:   -0.004391  1 .order   -0.004323   -0.004597   -0.004050
 step:  10.5608(harm= 22.1840)  dis= 0.03000  next Energy=   -56.920122 (dE=-0.193E-01)
 bond charge predicted
       N       E                     dE             d eps       ncg     rms          rms(c)
DAV:   1    -0.568752481903E+02    0.29961E-01   -0.25354E+01   160   0.150E+01    0.723E-01
DAV:   2    -0.569442581578E+02   -0.69010E-01   -0.67196E-01   240   0.426E+00    0.132E+00
DAV:   3    -0.569222881244E+02    0.21970E-01   -0.16158E-01   240   0.262E+00    0.594E-01
DAV:   4    -0.569175001174E+02    0.47880E-02   -0.23668E-02   260   0.723E-01    0.346E-01
DAV:   5    -0.569160676633E+02    0.14325E-02   -0.10569E-02   260   0.650E-01    0.264E-01
DAV:   6    -0.569151851235E+02    0.88254E-03   -0.87486E-03   260   0.620E-01    0.151E-01
DAV:   7    -0.569149583961E+02    0.22673E-03   -0.19818E-03   280   0.346E-01    0.883E-02
DAV:   8    -0.569148547057E+02    0.10369E-03   -0.44989E-04   280   0.148E-01    0.485E-02
DAV:   9    -0.569148207421E+02    0.33964E-04   -0.14916E-04   220   0.871E-02    0.306E-02
DAV:  10    -0.569148076147E+02    0.13127E-04   -0.11182E-04   180   0.584E-02    0.929E-03
DAV:  11    -0.569148107658E+02   -0.31511E-05   -0.97722E-06   140   0.252E-02
  35 F= -.56914811E+02 E0= -.56877396E+02  d E =-.140003E-01
 curvature: -28.32 expect dE=-0.387E-01 dE for cont linesearch -0.272E-02
 ZBRENT: increasing intervall
 opt :  26.4020  next Energy=   -56.916281 (dE=-0.155E-01)
 bond charge predicted
       N       E                     dE             d eps       ncg     rms          rms(c)
DAV:   1    -0.567075127968E+02    0.20729E+00   -0.10140E+02   160   0.302E+01    0.170E+00
DAV:   2    -0.571038254792E+02   -0.39631E+00   -0.39790E+00   240   0.105E+01    0.298E+00
DAV:   3    -0.569457485604E+02    0.15808E+00   -0.80411E-01   240   0.654E+00    0.116E+00
DAV:   4    -0.569292171714E+02    0.16531E-01   -0.12514E-01   220   0.159E+00    0.861E-01
DAV:   5    -0.569214797270E+02    0.77374E-02   -0.53947E-02   260   0.134E+00    0.606E-01
DAV:   6    -0.569163384350E+02    0.51413E-02   -0.39088E-02   240   0.132E+00    0.351E-01
DAV:   7    -0.569153479527E+02    0.99048E-03   -0.95818E-03   280   0.821E-01    0.220E-01
DAV:   8    -0.569148293112E+02    0.51864E-03   -0.24771E-03   280   0.385E-01    0.130E-01
DAV:   9    -0.569145967153E+02    0.23260E-03   -0.88685E-04   240   0.209E-01    0.819E-02
DAV:  10    -0.569144751086E+02    0.12161E-03   -0.63822E-04   220   0.159E-01    0.277E-02
DAV:  11    -0.569144818019E+02   -0.66933E-05   -0.96469E-05   200   0.729E-02
  36 F= -.56914482E+02 E0= -.56872938E+02  d E =-.136713E-01
 curvature: -15.29 expect dE=-0.677E-01 dE for cont linesearch -0.222E-02
 ZBRENT: bracketing found
 ZBRENT: interpolating
 opt :  17.6644  next Energy=   -56.917700 (dE=-0.169E-01)
 bond charge predicted
       N       E                     dE             d eps       ncg     rms          rms(c)
DAV:   1    -0.568690713642E+02    0.45404E-01   -0.30837E+01   160   0.165E+01    0.834E-01
DAV:   2    -0.569650922161E+02   -0.96021E-01   -0.91489E-01   240   0.503E+00    0.212E+00
DAV:   3    -0.569357388476E+02    0.29353E-01   -0.39870E-01   260   0.313E+00    0.878E-01
DAV:   4    -0.569223547981E+02    0.13384E-01   -0.34275E-02   280   0.111E+00    0.399E-01
DAV:   5    -0.569203292770E+02    0.20255E-02   -0.78948E-03   300   0.631E-01    0.336E-01
DAV:   6    -0.569193393536E+02    0.98992E-03   -0.17396E-02   260   0.785E-01    0.228E-01
DAV:   7    -0.569185137218E+02    0.82563E-03   -0.49467E-03   280   0.569E-01    0.838E-02
DAV:   8    -0.569183862661E+02    0.12746E-03   -0.73678E-04   260   0.179E-01    0.566E-02
DAV:   9    -0.569183156868E+02    0.70579E-04   -0.25563E-04   260   0.103E-01    0.320E-02
DAV:  10    -0.569182941443E+02    0.21542E-04   -0.11941E-04   240   0.634E-02    0.160E-02
DAV:  11    -0.569182911918E+02    0.29525E-05   -0.11463E-05   120   0.394E-02
  37 F= -.56918291E+02 E0= -.56879118E+02  d E =-.174807E-01
 curvature: -19.85 expect dE=-0.430E-01 dE for cont linesearch -0.485E-04
 trial: gam= 0.89269 g(F)=  0.217E-02 g(S)=  0.000E+00 ort = 0.130E-03 (trialstep = 0.493E+01)
 search vector abs. value=  0.788E-02
 bond charge predicted
       N       E                     dE             d eps       ncg     rms          rms(c)
DAV:   1    -0.569111100880E+02    0.71841E-02   -0.11242E+01   160   0.988E+00    0.423E-01
DAV:   2    -0.569350486609E+02   -0.23939E-01   -0.23990E-01   240   0.246E+00    0.704E-01
DAV:   3    -0.569305723495E+02    0.44763E-02   -0.51086E-02   260   0.137E+00    0.441E-01
DAV:   4    -0.569284325466E+02    0.21398E-02   -0.13051E-02   240   0.544E-01    0.233E-01
DAV:   5    -0.569278675295E+02    0.56502E-03   -0.49726E-03   260   0.401E-01    0.188E-01
DAV:   6    -0.569276256783E+02    0.24185E-03   -0.57637E-03   280   0.457E-01    0.132E-01
DAV:   7    -0.569272989756E+02    0.32670E-03   -0.15629E-03   260   0.326E-01    0.367E-02
DAV:   8    -0.569272664170E+02    0.32559E-04   -0.13665E-04   220   0.639E-02    0.242E-02
DAV:   9    -0.569272538287E+02    0.12588E-04   -0.34145E-05   140   0.521E-02    0.147E-02
DAV:  10    -0.569272520858E+02    0.17428E-05   -0.44771E-05   160   0.301E-02
  38 F= -.56927252E+02 E0= -.56888004E+02  d E =-.896089E-02
 trial-energy change:   -0.008961  1 .order   -0.008884   -0.011250   -0.006519
 step:  10.5487(harm= 11.7165)  dis= 0.02911  next Energy=   -56.931084 (dE=-0.128E-01)
 bond charge predicted
       N       E                     dE             d eps       ncg     rms          rms(c)
DAV:   1    -0.569102564413E+02    0.16997E-01   -0.14621E+01   160   0.113E+01    0.499E-01
DAV:   2    -0.569433603342E+02   -0.33104E-01   -0.32926E-01   240   0.294E+00    0.852E-01
DAV:   3    -0.569364847991E+02    0.68755E-02   -0.74234E-02   240   0.166E+00    0.513E-01
DAV:   4    -0.569335493758E+02    0.29354E-02   -0.17581E-02   240   0.632E-01    0.267E-01
DAV:   5    -0.569327798732E+02    0.76950E-03   -0.63061E-03   260   0.458E-01    0.215E-01
DAV:   6    -0.569324600742E+02    0.31980E-03   -0.75267E-03   260   0.525E-01    0.154E-01
DAV:   7    -0.569320262974E+02    0.43378E-03   -0.19237E-03   240   0.381E-01    0.433E-02
DAV:   8    -0.569319878583E+02    0.38439E-04   -0.17433E-04   200   0.674E-02    0.271E-02
DAV:   9    -0.569319779680E+02    0.98903E-05   -0.53505E-05   180   0.567E-02
  39 F= -.56931978E+02 E0= -.56892652E+02  d E =-.136868E-01
 curvature: -19.62 expect dE=-0.197E-01 dE for cont linesearch -0.154E-03
 ZBRENT: extrapolating
 opt :  11.8521  next Energy=   -56.932140 (dE=-0.138E-01)
 bond charge predicted
       N       E                     dE             d eps       ncg     rms          rms(c)
DAV:   1    -0.569311699202E+02    0.81794E-03   -0.78546E-01   160   0.261E+00    0.109E-01
DAV:   2    -0.569327976434E+02   -0.16277E-02   -0.15607E-02   240   0.582E-01    0.206E-01
DAV:   3    -0.569324196676E+02    0.37798E-03   -0.39669E-03   240   0.365E-01    0.108E-01
DAV:   4    -0.569322744304E+02    0.14524E-03   -0.69172E-04   240   0.135E-01    0.569E-02
DAV:   5    -0.569322478274E+02    0.26603E-04   -0.26721E-04   260   0.111E-01    0.481E-02
DAV:   6    -0.569322385350E+02    0.92924E-05   -0.30261E-04   260   0.118E-01    0.305E-02
DAV:   7    -0.569322232698E+02    0.15265E-04   -0.68921E-05   160   0.769E-02    0.874E-03
DAV:   8    -0.569322252283E+02   -0.19585E-05   -0.12252E-05   120   0.209E-02
  40 F= -.56932225E+02 E0= -.56892927E+02  d E =-.139340E-01
 curvature: -20.62 expect dE=-0.249E-01 dE for cont linesearch -0.254E-05
 trial: gam= 0.47406 g(F)=  0.121E-02 g(S)=  0.000E+00 ort = 0.311E-04 (trialstep = 0.631E+01)
 search vector abs. value=  0.301E-02
 bond charge predicted
       N       E                     dE             d eps       ncg     rms          rms(c)
DAV:   1    -0.569276155962E+02    0.46077E-02   -0.70609E+00   160   0.777E+00    0.313E-01
DAV:   2    -0.569402237636E+02   -0.12608E-01   -0.13616E-01   260   0.172E+00    0.358E-01
DAV:   3    -0.569392465164E+02    0.97725E-03   -0.19416E-02   240   0.884E-01    0.312E-01
DAV:   4    -0.569383974283E+02    0.84909E-03   -0.73772E-03   260   0.418E-01    0.195E-01
DAV:   5    -0.569381153226E+02    0.28211E-03   -0.29607E-03   280   0.313E-01    0.151E-01
DAV:   6    -0.569379065969E+02    0.20873E-03   -0.29672E-03   240   0.325E-01    0.899E-02
DAV:   7    -0.569377666898E+02    0.13991E-03   -0.66225E-04   280   0.222E-01    0.263E-02
DAV:   8    -0.569377573220E+02    0.93678E-05   -0.13390E-04   220   0.733E-02    0.225E-02
DAV:   9    -0.569377477188E+02    0.96032E-05   -0.32739E-05   140   0.467E-02
  41 F= -.56937748E+02 E0= -.56898459E+02  d E =-.552249E-02
 trial-energy change:   -0.005522  1 .order   -0.005527   -0.007727   -0.003326
 step:  11.0832(harm= 11.0832)  dis= 0.01607  next Energy=   -56.939009 (dE=-0.678E-02)
 bond charge predicted
       N       E                     dE             d eps       ncg     rms          rms(c)
DAV:   1    -0.569334431472E+02    0.43142E-02   -0.40311E+00   160   0.586E+00    0.232E-01
DAV:   2    -0.569404088913E+02   -0.69657E-02   -0.73880E-02   260   0.124E+00    0.273E-01
DAV:   3    -0.569398877728E+02    0.52112E-03   -0.10605E-02   240   0.660E-01    0.240E-01
DAV:   4    -0.569393716692E+02    0.51610E-03   -0.42926E-03   260   0.314E-01    0.144E-01
DAV:   5    -0.569392130875E+02    0.15858E-03   -0.16273E-03   280   0.240E-01    0.111E-01
DAV:   6    -0.569391054312E+02    0.10766E-03   -0.14390E-03   240   0.244E-01    0.657E-02
DAV:   7    -0.569390291700E+02    0.76261E-04   -0.34150E-04   300   0.163E-01    0.194E-02
DAV:   8    -0.569390246747E+02    0.44953E-05   -0.66773E-05   200   0.530E-02
  42 F= -.56939025E+02 E0= -.56899818E+02  d E =-.679945E-02
 curvature: -13.63 expect dE=-0.145E-01 dE for cont linesearch -0.500E-06
 trial: gam= 0.86326 g(F)=  0.107E-02 g(S)=  0.000E+00 ort =-0.105E-04 (trialstep = 0.664E+01)
 search vector abs. value=  0.329E-02
 bond charge predicted
       N       E                     dE             d eps       ncg     rms          rms(c)
DAV:   1    -0.569306405852E+02    0.83886E-02   -0.85325E+00   160   0.865E+00    0.372E-01
DAV:   2    -0.569456145958E+02   -0.14974E-01   -0.16228E-01   240   0.187E+00    0.361E-01
DAV:   3    -0.569444038366E+02    0.12108E-02   -0.14673E-02   260   0.952E-01    0.288E-01
DAV:   4    -0.569435871895E+02    0.81665E-03   -0.61505E-03   260   0.426E-01    0.203E-01
DAV:   5    -0.569436323156E+02   -0.45126E-04   -0.65732E-03   280   0.406E-01    0.227E-01
DAV:   6    -0.569431076315E+02    0.52468E-03   -0.45036E-03   260   0.365E-01    0.813E-02
DAV:   7    -0.569429835853E+02    0.12405E-03   -0.74458E-04   260   0.227E-01    0.366E-02
DAV:   8    -0.569429624852E+02    0.21100E-04   -0.16888E-04   240   0.853E-02    0.229E-02
DAV:   9    -0.569429517003E+02    0.10785E-04   -0.30713E-05   100   0.468E-02    0.101E-02
DAV:  10    -0.569429562390E+02   -0.45387E-05   -0.40696E-05   160   0.245E-02
  43 F= -.56942956E+02 E0= -.56904744E+02  d E =-.393156E-02
 trial-energy change:   -0.003932  1 .order   -0.003706   -0.007030   -0.000382
 step:   6.9586(harm=  7.0258)  dis= 0.01100  next Energy=   -56.942965 (dE=-0.394E-02)
 bond charge predicted
       N       E                     dE             d eps       ncg     rms          rms(c)
DAV:   1    -0.569429588850E+02   -0.71846E-05   -0.19331E-02   160   0.411E-01    0.164E-02
DAV:   2    -0.569429910492E+02   -0.32164E-04   -0.31718E-04   220   0.774E-02    0.153E-02
DAV:   3    -0.569429896801E+02    0.13691E-05   -0.25983E-05   140   0.418E-02
  44 F= -.56942990E+02 E0= -.56904912E+02  d E =-.396501E-02
 curvature: -10.59 expect dE=-0.519E-02 dE for cont linesearch -0.271E-05
 trial: gam= 0.43127 g(F)=  0.490E-03 g(S)=  0.000E+00 ort =-0.290E-04 (trialstep = 0.671E+01)
 search vector abs. value=  0.108E-02
 bond charge predicted
       N       E                     dE             d eps       ncg     rms          rms(c)
DAV:   1    -0.569412360267E+02    0.17550E-02   -0.28199E+00   160   0.504E+00    0.218E-01
DAV:   2    -0.569460894646E+02   -0.48534E-02   -0.52175E-02   240   0.111E+00    0.241E-01
DAV:   3    -0.569457963557E+02    0.29311E-03   -0.89182E-03   260   0.629E-01    0.233E-01
DAV:   4    -0.569452725850E+02    0.52377E-03   -0.40998E-03   260   0.300E-01    0.118E-01
DAV:   5    -0.569451263610E+02    0.14622E-03   -0.15294E-03   260   0.220E-01    0.881E-02
DAV:   6    -0.569450903776E+02    0.35983E-04   -0.11218E-03   240   0.228E-01    0.628E-02
DAV:   7    -0.569450201150E+02    0.70263E-04   -0.29941E-04   300   0.149E-01    0.191E-02
DAV:   8    -0.569450135665E+02    0.65485E-05   -0.34025E-05   140   0.481E-02
  45 F= -.56945014E+02 E0= -.56907980E+02  d E =-.202389E-02
 trial-energy change:   -0.002024  1 .order   -0.001850   -0.003203   -0.000498
 step:   7.5672(harm=  7.9409)  dis= 0.00596  next Energy=   -56.945046 (dE=-0.206E-02)
 bond charge predicted
       N       E                     dE             d eps       ncg     rms          rms(c)
DAV:   1    -0.569449987544E+02    0.21361E-04   -0.46123E-02   160   0.643E-01    0.302E-02
DAV:   2    -0.569450861982E+02   -0.87444E-04   -0.93755E-04   260   0.151E-01    0.343E-02
DAV:   3    -0.569450833666E+02    0.28317E-05   -0.20868E-04   220   0.928E-02    0.351E-02
DAV:   4    -0.569450714237E+02    0.11943E-04   -0.86122E-05   120   0.449E-02    0.149E-02
DAV:   5    -0.569450699267E+02    0.14971E-05   -0.21676E-05   140   0.301E-02
  46 F= -.56945070E+02 E0= -.56908143E+02  d E =-.208025E-02
 curvature:  -8.14 expect dE=-0.149E-02 dE for cont linesearch -0.856E-05
 trial: gam= 0.36656 g(F)=  0.183E-03 g(S)=  0.000E+00 ort = 0.337E-04 (trialstep = 0.688E+01)
 search vector abs. value=  0.352E-03
 bond charge predicted
       N       E                     dE             d eps       ncg     rms          rms(c)
DAV:   1    -0.569445653275E+02    0.50610E-03   -0.95463E-01   160   0.295E+00    0.134E-01
DAV:   2    -0.569468920421E+02   -0.23267E-02   -0.22507E-02   240   0.730E-01    0.275E-01
DAV:   3    -0.569461864108E+02    0.70563E-03   -0.81644E-03   240   0.516E-01    0.136E-01
DAV:   4    -0.569459482919E+02    0.23812E-03   -0.12821E-03   260   0.176E-01    0.658E-02
DAV:   5    -0.569458932757E+02    0.55016E-04   -0.31249E-04   260   0.117E-01    0.494E-02
DAV:   6    -0.569458792561E+02    0.14020E-04   -0.32396E-04   260   0.116E-01    0.311E-02
DAV:   7    -0.569458631612E+02    0.16095E-04   -0.67947E-05   180   0.782E-02    0.124E-02
DAV:   8    -0.569458616697E+02    0.14915E-05   -0.15897E-05   100   0.306E-02
  47 F= -.56945862E+02 E0= -.56908737E+02  d E =-.791743E-03
 trial-energy change:   -0.000792  1 .order   -0.000797   -0.001341   -0.000253
 step:   8.4761(harm=  8.4761)  dis= 0.00445  next Energy=   -56.945896 (dE=-0.826E-03)
 bond charge predicted
       N       E                     dE             d eps       ncg     rms          rms(c)
DAV:   1    -0.569458196101E+02    0.43551E-04   -0.51284E-02   160   0.683E-01    0.325E-02
DAV:   2    -0.569459536381E+02   -0.13403E-03   -0.12965E-03   240   0.178E-01    0.681E-02
DAV:   3    -0.569459128204E+02    0.40818E-04   -0.51422E-04   200   0.126E-01    0.334E-02
DAV:   4    -0.569458980642E+02    0.14756E-04   -0.71237E-05   140   0.441E-02    0.153E-02
DAV:   5    -0.569458956895E+02    0.23747E-05   -0.17283E-05    80   0.328E-02
  48 F= -.56945896E+02 E0= -.56908776E+02  d E =-.825763E-03
 curvature:  -7.65 expect dE=-0.590E-03 dE for cont linesearch -0.611E-07
 trial: gam= 0.48572 g(F)=  0.771E-04 g(S)=  0.000E+00 ort = 0.168E-05 (trialstep = 0.720E+01)
 search vector abs. value=  0.162E-03
 bond charge predicted
       N       E                     dE             d eps       ncg     rms          rms(c)
DAV:   1    -0.569455352908E+02    0.36277E-03   -0.48088E-01   160   0.210E+00    0.911E-02
DAV:   2    -0.569464085091E+02   -0.87322E-03   -0.92767E-03   240   0.430E-01    0.118E-01
DAV:   3    -0.569463511672E+02    0.57342E-04   -0.22405E-03   240   0.242E-01    0.104E-01
DAV:   4    -0.569462416497E+02    0.10952E-03   -0.75467E-04   260   0.133E-01    0.457E-02
DAV:   5    -0.569462216442E+02    0.20005E-04   -0.23528E-04   220   0.978E-02    0.357E-02
DAV:   6    -0.569462082490E+02    0.13395E-04   -0.17541E-04   240   0.831E-02    0.172E-02
DAV:   7    -0.569462017992E+02    0.64498E-05   -0.27387E-05   120   0.496E-02
  49 F= -.56946202E+02 E0= -.56908979E+02  d E =-.306110E-03
 trial-energy change:   -0.000306  1 .order   -0.000320   -0.000561   -0.000080
 step:   8.4001(harm=  8.4001)  dis= 0.00342  next Energy=   -56.946223 (dE=-0.327E-03)
 bond charge predicted
       N       E                     dE             d eps       ncg     rms          rms(c)
DAV:   1    -0.569461857256E+02    0.22523E-04   -0.13329E-02   160   0.350E-01    0.177E-02
DAV:   2    -0.569462129570E+02   -0.27231E-04   -0.30558E-04   240   0.784E-02    0.226E-02
DAV:   3    -0.569462119892E+02    0.96781E-06   -0.95840E-05   140   0.519E-02
  50 F= -.56946212E+02 E0= -.56908686E+02  d E =-.316300E-03
 curvature:  -8.72 expect dE=-0.288E-03 dE for cont linesearch -0.511E-05
 trial: gam= 0.51466 g(F)=  0.331E-04 g(S)=  0.000E+00 ort =-0.974E-05 (trialstep = 0.744E+01)
 search vector abs. value=  0.659E-04
 bond charge predicted
       N       E                     dE             d eps       ncg     rms          rms(c)
DAV:   1    -0.569459912236E+02    0.22173E-03   -0.21276E-01   160   0.139E+00    0.653E-02
DAV:   2    -0.569463667477E+02   -0.37552E-03   -0.41429E-03   220   0.307E-01    0.796E-02
DAV:   3    -0.569463434606E+02    0.23287E-04   -0.11433E-03   240   0.183E-01    0.751E-02
DAV:   4    -0.569462894876E+02    0.53973E-04   -0.42820E-04   220   0.100E-01    0.332E-02
DAV:   5    -0.569462728663E+02    0.16621E-04   -0.89141E-05   140   0.621E-02    0.213E-02
DAV:   6    -0.569462754838E+02   -0.26175E-05   -0.10755E-04   200   0.635E-02    0.167E-02
DAV:   7    -0.569462705564E+02    0.49274E-05   -0.20034E-05   100   0.442E-02
  51 F= -.56946271E+02 E0= -.56909038E+02  d E =-.585672E-04
 trial-energy change:   -0.000059  1 .order   -0.000049   -0.000209    0.000111
 step:   4.8593(harm=  4.8593)  dis= 0.00154  next Energy=   -56.946280 (dE=-0.681E-04)
 bond charge predicted
       N       E                     dE             d eps       ncg     rms          rms(c)
DAV:   1    -0.569462561552E+02    0.19329E-04   -0.25635E-02   160   0.482E-01    0.205E-02
DAV:   2    -0.569463003960E+02   -0.44241E-04   -0.47820E-04   240   0.101E-01    0.272E-02
DAV:   3    -0.569462948023E+02    0.55937E-05   -0.10188E-04   120   0.596E-02    0.226E-02
DAV:   4    -0.569462896999E+02    0.51024E-05   -0.34846E-05    80   0.312E-02
  52 F= -.56946290E+02 E0= -.56909002E+02  d E =-.777106E-04
 curvature:  -5.71 expect dE=-0.407E-04 dE for cont linesearch -0.234E-05
 trial: gam= 0.07797 g(F)=  0.714E-05 g(S)=  0.000E+00 ort = 0.519E-05 (trialstep = 0.692E+01)
 search vector abs. value=  0.835E-05
 reached required accuracy - stopping structural energy minimisation
