 vasp.5.4.1 05Feb16 (build Nov 22 2018 20:17:51) complex                        
  
 POSCAR found type information on POSCAR  Si
 02/POSCAR found :  1 types and      63 ions
 scaLAPACK will be used

 ----------------------------------------------------------------------------- 
|                                                                             |
|           W    W    AA    RRRRR   N    N  II  N    N   GGGG   !!!           |
|           W    W   A  A   R    R  NN   N  II  NN   N  G    G  !!!           |
|           W    W  A    A  R    R  N N  N  II  N N  N  G       !!!           |
|           W WW W  AAAAAA  RRRRR   N  N N  II  N  N N  G  GGG   !            |
|           WW  WW  A    A  R   R   N   NN  II  N   NN  G    G                |
|           W    W  A    A  R    R  N    N  II  N    N   GGGG   !!!           |
|                                                                             |
|      For optimal performance we recommend to set                            |
|        NCORE= 4 - approx SQRT( number of cores)                             |
|      NCORE specifies how many cores store one orbital (NPAR=cpu/NCORE).     |
|      This setting can  greatly improve the performance of VASP for DFT.     |
|      The default, NPAR=number of cores might be grossly inefficient         |
|      on modern multi-core architectures or massively parallel machines.     |
|      Do your own testing !!!!                                               |
|      Unfortunately you need to use the default for GW and RPA calculations. |
|      (for HF NCORE is supported but not extensively tested yet)             |
|                                                                             |
 ----------------------------------------------------------------------------- 


 ----------------------------------------------------------------------------- 
|                                                                             |
|  ADVICE TO THIS USER RUNNING 'VASP/VAMP'   (HEAR YOUR MASTER'S VOICE ...):  |
|                                                                             |
|      You have a (more or less) 'large supercell' and for larger cells       |
|      it might be more efficient to use real space projection operators      |
|      So try LREAL= Auto  in the INCAR   file.                               |
|      Mind: If you want to do a very accurate calculations keep the          |
|      reciprocal projection scheme          (i.e. LREAL=.FALSE.)             |
|                                                                             |
 ----------------------------------------------------------------------------- 

 LDA part: xc-table for Ceperly-Alder, standard interpolation
 POSCAR found type information on POSCAR  Si
 00/POSCAR found :  1 types and      63 ions
 POSCAR found type information on POSCAR  Si
 06/POSCAR found :  1 types and      63 ions
 Jacobian:    21.7332726272699     
 POSCAR, INCAR and KPOINTS ok, starting setup
 WARNING: small aliasing (wrap around) errors must be expected
 FFT: planning ...
 WAVECAR not read
 entering main loop
       N       E                     dE             d eps       ncg     rms          rms(c)
DAV:   1     0.662745695592E+03    0.66275E+03   -0.93702E+04  6080   0.126E+03
DAV:   2    -0.271310926942E+03   -0.93406E+03   -0.88991E+03  7256   0.184E+02
DAV:   3    -0.341225068161E+03   -0.69914E+02   -0.68599E+02  7416   0.440E+01
DAV:   4    -0.343155217284E+03   -0.19301E+01   -0.19167E+01  7344   0.887E+00
DAV:   5    -0.343215053401E+03   -0.59836E-01   -0.59661E-01  7376   0.151E+00    0.163E+01
DAV:   6    -0.339607952372E+03    0.36071E+01   -0.31907E+00  7192   0.291E+00    0.965E+00
DAV:   7    -0.338113896664E+03    0.14941E+01   -0.41584E+00  6792   0.336E+00    0.123E+00
DAV:   8    -0.338138226602E+03   -0.24330E-01   -0.28001E-01  7264   0.106E+00    0.505E-01
DAV:   9    -0.338147384669E+03   -0.91581E-02   -0.36470E-02  6944   0.398E-01    0.174E-01
DAV:  10    -0.338149317463E+03   -0.19328E-02   -0.64661E-03  7056   0.153E-01    0.613E-02
DAV:  11    -0.338149597776E+03   -0.28031E-03   -0.51832E-04  7216   0.538E-02    0.292E-02
DAV:  12    -0.338149700255E+03   -0.10248E-03   -0.26954E-04  7296   0.328E-02    0.951E-03
DAV:  13    -0.338149706093E+03   -0.58381E-05   -0.35316E-05  5232   0.131E-02
   1 F= -.33814971E+03 E0= -.33814942E+03  d E =-.338150E+03
quench:  g(F)=  0.000E+00 g(S)=  0.000E+00 dE (1.order)= 0.000E+00
 bond charge predicted
       N       E                     dE             d eps       ncg     rms          rms(c)
DAV:   1    -0.338190569430E+03   -0.40869E-01   -0.18347E-01  6496   0.771E-01    0.238E-01
DAV:   2    -0.338188898933E+03    0.16705E-02   -0.10140E-02  7336   0.200E-01    0.144E-01
DAV:   3    -0.338187666362E+03    0.12326E-02   -0.33351E-03  6848   0.107E-01    0.231E-02
DAV:   4    -0.338187696309E+03   -0.29947E-04   -0.43663E-04  7064   0.417E-02    0.172E-02
DAV:   5    -0.338187697717E+03   -0.14088E-05   -0.30065E-05  5304   0.113E-02
   2 F= -.33818770E+03 E0= -.33818748E+03  d E =-.379916E-01
quench:  g(F)=  0.000E+00 g(S)=  0.000E+00 dE (1.order)= 0.000E+00
 bond charge predicted
       N       E                     dE             d eps       ncg     rms          rms(c)
DAV:   1    -0.338243040951E+03   -0.55345E-01   -0.33723E-01  6352   0.108E+00    0.253E-01
DAV:   2    -0.338241981974E+03    0.10590E-02   -0.23379E-02  7416   0.313E-01    0.158E-01
DAV:   3    -0.338240548126E+03    0.14338E-02   -0.51237E-03  7200   0.144E-01    0.333E-02
DAV:   4    -0.338240621886E+03   -0.73760E-04   -0.11014E-03  7080   0.624E-02    0.231E-02
DAV:   5    -0.338240613603E+03    0.82827E-05   -0.58599E-05  7048   0.158E-02
   3 F= -.33824061E+03 E0= -.33824037E+03  d E =-.529159E-01
quench:  g(F)=  0.000E+00 g(S)=  0.000E+00 dE (1.order)= 0.000E+00
 bond charge predicted
       N       E                     dE             d eps       ncg     rms          rms(c)
DAV:   1    -0.338298904120E+03   -0.58282E-01   -0.50891E-01  6240   0.134E+00    0.276E-01
DAV:   2    -0.338298573071E+03    0.33105E-03   -0.33743E-02  7408   0.369E-01    0.171E-01
DAV:   3    -0.338297106164E+03    0.14669E-02   -0.46945E-03  7240   0.140E-01    0.483E-02
DAV:   4    -0.338297129047E+03   -0.22883E-04   -0.11277E-03  7160   0.617E-02    0.260E-02
DAV:   5    -0.338297109430E+03    0.19617E-04   -0.72565E-05  7152   0.180E-02    0.122E-02
DAV:   6    -0.338297104584E+03    0.48462E-05   -0.18050E-05  4064   0.838E-03
   4 F= -.33829710E+03 E0= -.33829697E+03  d E =-.564910E-01
quench:  g(F)=  0.000E+00 g(S)=  0.000E+00 dE (1.order)= 0.000E+00
 bond charge predicted
       N       E                     dE             d eps       ncg     rms          rms(c)
DAV:   1    -0.338347232526E+03   -0.50123E-01   -0.66535E-01  6160   0.155E+00    0.218E-01
DAV:   2    -0.338350705123E+03   -0.34726E-02   -0.42068E-02  7352   0.412E-01    0.150E-01
DAV:   3    -0.338350226195E+03    0.47893E-03   -0.14518E-03  7296   0.909E-02    0.711E-02
DAV:   4    -0.338350203816E+03    0.22378E-04   -0.61940E-04  7216   0.446E-02    0.189E-02
DAV:   5    -0.338350201969E+03    0.18470E-05   -0.68943E-05  7080   0.181E-02
   5 F= -.33835020E+03 E0= -.33835007E+03  d E =-.530974E-01
quench:  g(F)=  0.000E+00 g(S)=  0.000E+00 dE (1.order)= 0.000E+00
 bond charge predicted
       N       E                     dE             d eps       ncg     rms          rms(c)
DAV:   1    -0.338388100852E+03   -0.37897E-01   -0.64219E-01  6240   0.154E+00    0.212E-01
DAV:   2    -0.338391405205E+03   -0.33044E-02   -0.38645E-02  7344   0.401E-01    0.148E-01
DAV:   3    -0.338391024512E+03    0.38069E-03   -0.13540E-03  7216   0.902E-02    0.707E-02
DAV:   4    -0.338391029502E+03   -0.49907E-05   -0.65715E-04  7288   0.469E-02    0.187E-02
DAV:   5    -0.338391022967E+03    0.65353E-05   -0.81953E-05  7120   0.201E-02
   6 F= -.33839102E+03 E0= -.33839089E+03  d E =-.408210E-01
quench:  g(F)=  0.000E+00 g(S)=  0.000E+00 dE (1.order)= 0.000E+00
 bond charge predicted
       N       E                     dE             d eps       ncg     rms          rms(c)
DAV:   1    -0.338416545449E+03   -0.25516E-01   -0.62921E-01  6232   0.154E+00    0.206E-01
DAV:   2    -0.338419741076E+03   -0.31956E-02   -0.35509E-02  7352   0.384E-01    0.143E-01
DAV:   3    -0.338419509933E+03    0.23114E-03   -0.10435E-03  7312   0.810E-02    0.716E-02
DAV:   4    -0.338419520242E+03   -0.10309E-04   -0.48184E-04  7240   0.406E-02    0.166E-02
DAV:   5    -0.338419514973E+03    0.52688E-05   -0.64389E-05  7008   0.181E-02
   7 F= -.33841951E+03 E0= -.33841938E+03  d E =-.284920E-01
quench:  g(F)=  0.000E+00 g(S)=  0.000E+00 dE (1.order)= 0.000E+00
 bond charge predicted
       N       E                     dE             d eps       ncg     rms          rms(c)
DAV:   1    -0.338431209387E+03   -0.11689E-01   -0.46498E-01  6136   0.133E+00    0.169E-01
DAV:   2    -0.338433682716E+03   -0.24733E-02   -0.26382E-02  7336   0.332E-01    0.125E-01
DAV:   3    -0.338433478947E+03    0.20377E-03   -0.70929E-04  7256   0.661E-02    0.665E-02
DAV:   4    -0.338433453066E+03    0.25881E-04   -0.42075E-04  7168   0.394E-02    0.121E-02
DAV:   5    -0.338433449246E+03    0.38200E-05   -0.68200E-05  7008   0.182E-02
   8 F= -.33843345E+03 E0= -.33843331E+03  d E =-.139343E-01
quench:  g(F)=  0.000E+00 g(S)=  0.000E+00 dE (1.order)= 0.000E+00
 bond charge predicted
       N       E                     dE             d eps       ncg     rms          rms(c)
DAV:   1    -0.338438627050E+03   -0.51740E-02   -0.67144E-02  6464   0.495E-01    0.648E-02
DAV:   2    -0.338439029251E+03   -0.40220E-03   -0.45604E-03  7200   0.135E-01    0.529E-02
DAV:   3    -0.338438962556E+03    0.66696E-04   -0.13012E-04  7152   0.274E-02    0.297E-02
DAV:   4    -0.338438943428E+03    0.19128E-04   -0.13569E-04  6992   0.225E-02    0.529E-03
DAV:   5    -0.338438944049E+03   -0.62049E-06   -0.25471E-05  4344   0.110E-02
   9 F= -.33843894E+03 E0= -.33843881E+03  d E =-.549480E-02
quench:  g(F)=  0.000E+00 g(S)=  0.000E+00 dE (1.order)= 0.000E+00
 bond charge predicted
       N       E                     dE             d eps       ncg     rms          rms(c)
DAV:   1    -0.338442718264E+03   -0.37748E-02   -0.38715E-02  6184   0.382E-01    0.535E-02
DAV:   2    -0.338442860988E+03   -0.14272E-03   -0.17282E-03  7376   0.869E-02    0.361E-02
DAV:   3    -0.338442850335E+03    0.10653E-04   -0.64749E-05  7112   0.189E-02    0.144E-02
DAV:   4    -0.338442851540E+03   -0.12049E-05   -0.16948E-05  4160   0.814E-03
  10 F= -.33844285E+03 E0= -.33844271E+03  d E =-.390749E-02
quench:  g(F)=  0.000E+00 g(S)=  0.000E+00 dE (1.order)= 0.000E+00
 bond charge predicted
       N       E                     dE             d eps       ncg     rms          rms(c)
DAV:   1    -0.338446916853E+03   -0.40665E-02   -0.53664E-02  6112   0.449E-01    0.670E-02
DAV:   2    -0.338447081206E+03   -0.16435E-03   -0.22829E-03  7368   0.102E-01    0.450E-02
DAV:   3    -0.338447053354E+03    0.27852E-04   -0.12968E-04  7152   0.256E-02    0.138E-02
DAV:   4    -0.338447056022E+03   -0.26676E-05   -0.30238E-05  4808   0.106E-02
  11 F= -.33844706E+03 E0= -.33844692E+03  d E =-.420448E-02
quench:  g(F)=  0.000E+00 g(S)=  0.000E+00 dE (1.order)= 0.000E+00
 bond charge predicted
       N       E                     dE             d eps       ncg     rms          rms(c)
DAV:   1    -0.338451062429E+03   -0.40091E-02   -0.66790E-02  6096   0.501E-01    0.752E-02
DAV:   2    -0.338451245241E+03   -0.18281E-03   -0.26804E-03  7384   0.110E-01    0.500E-02
DAV:   3    -0.338451215751E+03    0.29490E-04   -0.15793E-04  7240   0.276E-02    0.147E-02
DAV:   4    -0.338451218658E+03   -0.29073E-05   -0.30970E-05  4872   0.109E-02
  12 F= -.33845122E+03 E0= -.33845108E+03  d E =-.416264E-02
quench:  g(F)=  0.000E+00 g(S)=  0.000E+00 dE (1.order)= 0.000E+00
 bond charge predicted
       N       E                     dE             d eps       ncg     rms          rms(c)
DAV:   1    -0.338454805304E+03   -0.35896E-02   -0.78860E-02  6096   0.545E-01    0.769E-02
DAV:   2    -0.338455063706E+03   -0.25840E-03   -0.29854E-03  7352   0.118E-01    0.522E-02
DAV:   3    -0.338455046877E+03    0.16829E-04   -0.13102E-04  7192   0.261E-02    0.147E-02
DAV:   4    -0.338455049508E+03   -0.26308E-05   -0.23348E-05  4640   0.960E-03
  13 F= -.33845505E+03 E0= -.33845491E+03  d E =-.383085E-02
quench:  g(F)=  0.000E+00 g(S)=  0.000E+00 dE (1.order)= 0.000E+00
 bond charge predicted
       N       E                     dE             d eps       ncg     rms          rms(c)
DAV:   1    -0.338458113578E+03   -0.30667E-02   -0.90415E-02  6096   0.583E-01    0.824E-02
DAV:   2    -0.338458401704E+03   -0.28813E-03   -0.33255E-03  7344   0.125E-01    0.559E-02
DAV:   3    -0.338458384907E+03    0.16797E-04   -0.15388E-04  7192   0.278E-02    0.139E-02
DAV:   4    -0.338458388084E+03   -0.31769E-05   -0.22978E-05  4664   0.958E-03
  14 F= -.33845839E+03 E0= -.33845825E+03  d E =-.333858E-02
quench:  g(F)=  0.000E+00 g(S)=  0.000E+00 dE (1.order)= 0.000E+00
 bond charge predicted
       N       E                     dE             d eps       ncg     rms          rms(c)
DAV:   1    -0.338460491804E+03   -0.21069E-02   -0.98132E-02  6080   0.604E-01    0.843E-02
DAV:   2    -0.338460841839E+03   -0.35003E-03   -0.39591E-03  7328   0.135E-01    0.578E-02
DAV:   3    -0.338460819321E+03    0.22518E-04   -0.16443E-04  7192   0.289E-02    0.171E-02
DAV:   4    -0.338460823510E+03   -0.41886E-05   -0.26279E-05  4792   0.101E-02
  15 F= -.33846082E+03 E0= -.33846068E+03  d E =-.243543E-02
quench:  g(F)=  0.000E+00 g(S)=  0.000E+00 dE (1.order)= 0.000E+00
 bond charge predicted
       N       E                     dE             d eps       ncg     rms          rms(c)
DAV:   1    -0.338461089617E+03   -0.27030E-03   -0.48994E-02  6256   0.428E-01    0.520E-02
DAV:   2    -0.338461373164E+03   -0.28355E-03   -0.29338E-03  7304   0.109E-01    0.408E-02
DAV:   3    -0.338461352340E+03    0.20824E-04   -0.72686E-05  7080   0.201E-02    0.240E-02
DAV:   4    -0.338461345362E+03    0.69781E-05   -0.53147E-05  6584   0.145E-02
  16 F= -.33846135E+03 E0= -.33846120E+03  d E =-.521852E-03
quench:  g(F)=  0.000E+00 g(S)=  0.000E+00 dE (1.order)= 0.000E+00
 bond charge predicted
       N       E                     dE             d eps       ncg     rms          rms(c)
DAV:   1    -0.338461735335E+03   -0.38299E-03   -0.27682E-03  6664   0.958E-02    0.209E-02
DAV:   2    -0.338461736151E+03   -0.81553E-06   -0.21029E-04  6912   0.305E-02    0.148E-02
DAV:   3    -0.338461723030E+03    0.13121E-04   -0.45881E-05  6240   0.143E-02    0.206E-03
DAV:   4    -0.338461723522E+03   -0.49184E-06   -0.79807E-06  3424   0.583E-03
  17 F= -.33846172E+03 E0= -.33846158E+03  d E =-.378160E-03
quench:  g(F)=  0.000E+00 g(S)=  0.000E+00 dE (1.order)= 0.000E+00
 bond charge predicted
       N       E                     dE             d eps       ncg     rms          rms(c)
DAV:   1    -0.338461922372E+03   -0.19934E-03   -0.60882E-03  6576   0.145E-01    0.269E-02
DAV:   2    -0.338461937994E+03   -0.15622E-04   -0.42918E-04  7088   0.428E-02    0.198E-02
DAV:   3    -0.338461916701E+03    0.21293E-04   -0.62205E-05  6552   0.171E-02    0.243E-03
DAV:   4    -0.338461917922E+03   -0.12210E-05   -0.12315E-05  3520   0.686E-03
  18 F= -.33846192E+03 E0= -.33846177E+03  d E =-.194401E-03
quench:  g(F)=  0.000E+00 g(S)=  0.000E+00 dE (1.order)= 0.000E+00
 bond charge predicted
       N       E                     dE             d eps       ncg     rms          rms(c)
DAV:   1    -0.338462010861E+03   -0.94160E-04   -0.29194E-03  6160   0.103E-01    0.171E-02
DAV:   2    -0.338462015616E+03   -0.47547E-05   -0.13030E-04  7384   0.242E-02    0.109E-02
DAV:   3    -0.338462012739E+03    0.28767E-05   -0.10463E-05  3712   0.703E-03
  19 F= -.33846201E+03 E0= -.33846186E+03  d E =-.948168E-04
quench:  g(F)=  0.000E+00 g(S)=  0.000E+00 dE (1.order)= 0.000E+00
 bond charge predicted
       N       E                     dE             d eps       ncg     rms          rms(c)
DAV:   1    -0.338462208131E+03   -0.19251E-03   -0.49652E-03  6144   0.133E-01    0.258E-02
DAV:   2    -0.338462207554E+03    0.57632E-06   -0.21686E-04  7368   0.317E-02    0.161E-02
DAV:   3    -0.338462199604E+03    0.79506E-05   -0.30971E-05  4936   0.116E-02
  20 F= -.33846220E+03 E0= -.33846204E+03  d E =-.186865E-03
quench:  g(F)=  0.000E+00 g(S)=  0.000E+00 dE (1.order)= 0.000E+00
 bond charge predicted
       N       E                     dE             d eps       ncg     rms          rms(c)
DAV:   1    -0.338462513680E+03   -0.30613E-03   -0.68295E-03  6144   0.157E-01    0.309E-02
DAV:   2    -0.338462509600E+03    0.40801E-05   -0.28787E-04  7368   0.367E-02    0.193E-02
DAV:   3    -0.338462497935E+03    0.11665E-04   -0.49812E-05  6672   0.140E-02    0.388E-03
DAV:   4    -0.338462498475E+03   -0.53964E-06   -0.73010E-06  3544   0.569E-03
  21 F= -.33846250E+03 E0= -.33846232E+03  d E =-.298871E-03
quench:  g(F)=  0.000E+00 g(S)=  0.000E+00 dE (1.order)= 0.000E+00
 reached required accuracy - stopping structural energy minimisation
 writing wavefunctions
