 running on   35 total cores
 distrk:  each k-point on   35 cores,    1 groups
 distr:  one band on    1 cores,   35 groups
 using from now: INCAR     
 vasp.5.4.1 24Jun15 (build Oct 26 2018 17:15:27) complex                        
  
 POSCAR found type information on POSCAR  Cu
 POSCAR found :  1 types and      16 ions
 scaLAPACK will be used

 ----------------------------------------------------------------------------- 
|                                                                             |
|           W    W    AA    RRRRR   N    N  II  N    N   GGGG   !!!           |
|           W    W   A  A   R    R  NN   N  II  NN   N  G    G  !!!           |
|           W    W  A    A  R    R  N N  N  II  N N  N  G       !!!           |
|           W WW W  AAAAAA  RRRRR   N  N N  II  N  N N  G  GGG   !            |
|           WW  WW  A    A  R   R   N   NN  II  N   NN  G    G                |
|           W    W  A    A  R    R  N    N  II  N    N   GGGG   !!!           |
|                                                                             |
|      For optimal performance we recommend to set                            |
|        NCORE= 4 - approx SQRT( number of cores)                             |
|      NCORE specifies how many cores store one orbital (NPAR=cpu/NCORE).     |
|      This setting can  greatly improve the performance of VASP for DFT.     |
|      The default, NPAR=number of cores might be grossly inefficient         |
|      on modern multi-core architectures or massively parallel machines.     |
|      Do your own testing !!!!                                               |
|      Unfortunately you need to use the default for GW and RPA calculations. |
|      (for HF NCORE is supported but not extensively tested yet)             |
|                                                                             |
 ----------------------------------------------------------------------------- 

 LDA part: xc-table for Ceperly-Alder, standard interpolation
 POSCAR, INCAR and KPOINTS ok, starting setup
 WARNING: small aliasing (wrap around) errors must be expected
 FFT: planning ...
 WAVECAR not read
 WARNING: random wavefunctions but no delay for mixing, default for NELMDL
 entering main loop
       N       E                     dE             d eps       ncg     rms          rms(c)
DAV:   1     0.107389746001E+04    0.10739E+04   -0.82559E+04 10500   0.193E+03
DAV:   2    -0.118638482809E+02   -0.10858E+04   -0.10657E+04 10500   0.364E+02
DAV:   3    -0.676581861570E+02   -0.55794E+02   -0.55429E+02 13755   0.119E+02
DAV:   4    -0.681110111372E+02   -0.45282E+00   -0.45278E+00 11340   0.112E+01
DAV:   5    -0.681139211802E+02   -0.29100E-02   -0.29098E-02 15505   0.594E-01    0.259E+01
DAV:   6    -0.613873485721E+02    0.67266E+01   -0.14602E+02 12635   0.918E+01    0.127E+01
DAV:   7    -0.560352523976E+02    0.53521E+01   -0.27015E+01 13020   0.466E+01    0.287E+00
DAV:   8    -0.561575248795E+02   -0.12227E+00   -0.46926E+00 13195   0.319E+01    0.257E+00
DAV:   9    -0.563102812305E+02   -0.15276E+00   -0.52438E+00 14210   0.300E+01    0.290E+00
DAV:  10    -0.560336845230E+02    0.27660E+00   -0.39205E+00 18340   0.236E+01    0.161E+00
DAV:  11    -0.559847270755E+02    0.48957E-01   -0.23863E-01 14000   0.508E+00    0.820E-01
DAV:  12    -0.559860681208E+02   -0.13410E-02   -0.27183E-01 12915   0.612E+00    0.346E-01
DAV:  13    -0.559802233010E+02    0.58448E-02   -0.62147E-02 12670   0.238E+00    0.273E-01
DAV:  14    -0.559744519234E+02    0.57714E-02   -0.11009E-01 19355   0.342E+00    0.124E-01
DAV:  15    -0.559762386732E+02   -0.17867E-02   -0.12169E-02 12775   0.109E+00    0.175E-01
DAV:  16    -0.559732690667E+02    0.29696E-02   -0.55600E-02 18270   0.279E+00    0.977E-02
DAV:  17    -0.559729841070E+02    0.28496E-03   -0.24026E-03 10570   0.608E-01    0.419E-02
DAV:  18    -0.559730802593E+02   -0.96152E-04   -0.16791E-03 16975   0.449E-01    0.442E-02
DAV:  19    -0.559738599200E+02   -0.77966E-03   -0.18189E-03 17080   0.399E-01    0.406E-02
DAV:  20    -0.559740985352E+02   -0.23862E-03   -0.75153E-04 12635   0.298E-01    0.213E-02
DAV:  21    -0.559743676080E+02   -0.26907E-03   -0.28880E-04 11830   0.188E-01    0.360E-02
DAV:  22    -0.559743291316E+02    0.38476E-04   -0.76730E-04 12635   0.368E-01    0.731E-03
DAV:  23    -0.559743886834E+02   -0.59552E-04   -0.63152E-04  8750   0.321E-01    0.216E-02
DAV:  24    -0.559743848304E+02    0.38530E-05   -0.22183E-03  9485   0.604E-01    0.224E-02
DAV:  25    -0.559743720604E+02    0.12770E-04   -0.28813E-05 10185   0.491E-02    0.187E-02
DAV:  26    -0.559743848098E+02   -0.12749E-04   -0.18852E-03  8610   0.535E-01    0.202E-02
DAV:  27    -0.559743331827E+02    0.51627E-04   -0.39903E-04  8155   0.252E-01    0.357E-03
DAV:  28    -0.559743353602E+02   -0.21775E-05   -0.13056E-05  8715   0.157E-02
   1 F= -.55974335E+02 E0= -.55974170E+02  d E =-.559743E+02
 curvature:   0.00 expect dE= 0.000E+00 dE for cont linesearch  0.000E+00
 trial: gam= 0.00000 g(F)=  0.113E-01 g(S)=  0.000E+00 ort = 0.000E+00 (trialstep = 0.100E+01)
 search vector abs. value=  0.113E-01
 bond charge predicted
       N       E                     dE             d eps       ncg     rms          rms(c)
DAV:   1    -0.559853337463E+02   -0.11001E-01   -0.57647E-01 10500   0.251E+00    0.527E-02
DAV:   2    -0.559854832289E+02   -0.14948E-03   -0.23261E-03 14070   0.590E-01    0.497E-02
DAV:   3    -0.559855725827E+02   -0.89354E-04   -0.42006E-03 12810   0.980E-01    0.513E-02
DAV:   4    -0.559854329867E+02    0.13960E-03   -0.17872E-03 15470   0.624E-01    0.249E-02
DAV:   5    -0.559854254210E+02    0.75657E-05   -0.12181E-04 12250   0.150E-01    0.777E-03
DAV:   6    -0.559854284891E+02   -0.30681E-05   -0.45102E-05 12670   0.777E-02
   2 F= -.55985428E+02 E0= -.55985241E+02  d E =-.110931E-01
 ZBRENT: can't locate minimum, use default step
 trial-energy change:   -0.011093  1 .order   -0.011072   -0.011343   -0.010802
 step:   4.0000(harm= 20.9698)  dis= 0.01490  next Energy=   -56.093264 (dE=-0.119E+00)
 bond charge predicted
       N       E                     dE             d eps       ncg     rms          rms(c)
DAV:   1    -0.560142172492E+02   -0.28792E-01   -0.51905E+00 10500   0.753E+00    0.161E-01
DAV:   2    -0.560152475534E+02   -0.10303E-02   -0.16319E-02 13195   0.119E+00    0.127E-01
DAV:   3    -0.560151817907E+02    0.65763E-04   -0.42152E-03 12530   0.111E+00    0.878E-02
DAV:   4    -0.560150419099E+02    0.13988E-03   -0.87571E-04 12670   0.495E-01    0.334E-02
DAV:   5    -0.560150972315E+02   -0.55322E-04   -0.11340E-03 17255   0.518E-01    0.319E-02
DAV:   6    -0.560150385642E+02    0.58667E-04   -0.10137E-03 14315   0.476E-01    0.112E-02
DAV:   7    -0.560150347469E+02    0.38174E-05   -0.98565E-05 11655   0.148E-01
   3 F= -.56015035E+02 E0= -.56014802E+02  d E =-.406994E-01
 curvature:  -2.91 expect dE=-0.205E-01 dE for cont linesearch -0.204E-01
 ZBRENT: increasing intervall
 opt :  10.0000  next Energy=   -56.057218 (dE=-0.829E-01)
 bond charge predicted
       N       E                     dE             d eps       ncg     rms          rms(c)
DAV:   1    -0.560548024242E+02   -0.39764E-01   -0.20803E+01 10500   0.151E+01    0.335E-01
DAV:   2    -0.560590183172E+02   -0.42159E-02   -0.69170E-02 12565   0.245E+00    0.258E-01
DAV:   3    -0.560586541754E+02    0.36414E-03   -0.18358E-02 12635   0.236E+00    0.182E-01
DAV:   4    -0.560582436943E+02    0.41048E-03   -0.66016E-03 12810   0.131E+00    0.974E-02
DAV:   5    -0.560592773756E+02   -0.10337E-02   -0.24063E-02 15120   0.236E+00    0.139E-01
DAV:   6    -0.560579783221E+02    0.12991E-02   -0.13756E-02 19250   0.169E+00    0.226E-02
DAV:   7    -0.560579934363E+02   -0.15114E-04   -0.45345E-04 13265   0.233E-01    0.147E-02
DAV:   8    -0.560579902623E+02    0.31740E-05   -0.95668E-05 13160   0.106E-01
   4 F= -.56057990E+02 E0= -.56057793E+02  d E =-.836549E-01
 curvature:  -6.02 expect dE=-0.150E-01 dE for cont linesearch -0.142E-01
 ZBRENT: increasing intervall
 opt :  22.0000  next Energy=   -56.075292 (dE=-0.101E+00)
 bond charge predicted
       N       E                     dE             d eps       ncg     rms          rms(c)
DAV:   1    -0.560582682994E+02   -0.27486E-03   -0.83918E+01 10500   0.308E+01    0.718E-01
DAV:   2    -0.560776235103E+02   -0.19355E-01   -0.32474E-01 12705   0.553E+00    0.579E-01
DAV:   3    -0.560743253682E+02    0.32981E-02   -0.87740E-02 12390   0.545E+00    0.364E-01
DAV:   4    -0.560745347418E+02   -0.20937E-03   -0.51606E-02 15085   0.350E+00    0.266E-01
DAV:   5    -0.560760517875E+02   -0.15170E-02   -0.13381E-01 15960   0.535E+00    0.266E-01
DAV:   6    -0.560714488342E+02    0.46030E-02   -0.48438E-02 19845   0.310E+00    0.485E-02
DAV:   7    -0.560715366558E+02   -0.87822E-04   -0.20258E-03 11655   0.470E-01    0.322E-02
DAV:   8    -0.560715263373E+02    0.10319E-04   -0.36737E-04 12285   0.227E-01    0.171E-02
DAV:   9    -0.560715162043E+02    0.10133E-04   -0.98199E-05 12005   0.977E-02    0.105E-02
DAV:  10    -0.560715154569E+02    0.74740E-06   -0.50595E-05 11655   0.995E-02
   5 F= -.56071515E+02 E0= -.56071325E+02  d E =-.971801E-01
 curvature:  -7.32 expect dE=-0.834E-02 dE for cont linesearch -0.566E-02
 ZBRENT: bracketing found
 ZBRENT: interpolating
 opt :  17.6347  next Energy=   -56.077979 (dE=-0.104E+00)
 bond charge predicted
       N       E                     dE             d eps       ncg     rms          rms(c)
DAV:   1    -0.560763238482E+02   -0.48076E-02   -0.10990E+01 10500   0.110E+01    0.228E-01
DAV:   2    -0.560784371203E+02   -0.21133E-02   -0.34732E-02 10850   0.172E+00    0.190E-01
DAV:   3    -0.560783020932E+02    0.13503E-03   -0.81743E-03 13230   0.158E+00    0.131E-01
DAV:   4    -0.560790959486E+02   -0.79386E-03   -0.16121E-02 16905   0.196E+00    0.136E-01
DAV:   5    -0.560778594233E+02    0.12365E-02   -0.14406E-02 19600   0.175E+00    0.209E-02
DAV:   6    -0.560778643744E+02   -0.49511E-05   -0.50053E-04 14875   0.282E-01    0.149E-02
DAV:   7    -0.560778631366E+02    0.12378E-05   -0.10382E-04 13055   0.145E-01    0.744E-03
DAV:   8    -0.560778623104E+02    0.82618E-06   -0.21276E-05  8155   0.515E-02
   6 F= -.56077862E+02 E0= -.56077595E+02  d E =-.103527E+00
 curvature:  -8.36 expect dE=-0.194E-02 dE for cont linesearch -0.648E-06
 trial: gam= 0.02306 g(F)=  0.232E-03 g(S)=  0.000E+00 ort =-0.296E-04 (trialstep = 0.433E+01)
 search vector abs. value=  0.237E-03
 bond charge predicted
       N       E                     dE             d eps       ncg     rms          rms(c)
DAV:   1    -0.560787303934E+02   -0.86726E-03   -0.22222E-01 10500   0.160E+00    0.308E-02
DAV:   2    -0.560787738236E+02   -0.43430E-04   -0.69869E-04 12495   0.217E-01    0.239E-02
DAV:   3    -0.560787951072E+02   -0.21284E-04   -0.48641E-04 12740   0.363E-01    0.260E-02
DAV:   4    -0.560787725745E+02    0.22533E-04   -0.67210E-04  9485   0.397E-01    0.154E-02
DAV:   5    -0.560787608568E+02    0.11718E-04   -0.15123E-04  9100   0.190E-01    0.539E-03
DAV:   6    -0.560787612800E+02   -0.42313E-06   -0.21250E-05  9450   0.595E-02
   7 F= -.56078761E+02 E0= -.56078479E+02  d E =-.898970E-03
 ZBRENT: can't locate minimum, use default step
 trial-energy change:   -0.000899  1 .order   -0.000883   -0.001000   -0.000766
 step:  17.3078(harm= 18.4959)  dis= 0.00928  next Energy=   -56.080001 (dE=-0.214E-02)
 bond charge predicted
       N       E                     dE             d eps       ncg     rms          rms(c)
DAV:   1    -0.560798872683E+02   -0.11264E-02   -0.20008E+00 10500   0.479E+00    0.929E-02
DAV:   2    -0.560802776730E+02   -0.39040E-03   -0.63575E-03 11725   0.569E-01    0.693E-02
DAV:   3    -0.560802147506E+02    0.62922E-04   -0.64282E-04 13475   0.405E-01    0.460E-02
DAV:   4    -0.560804275563E+02   -0.21281E-03   -0.39735E-03 15015   0.997E-01    0.661E-02
DAV:   5    -0.560801705305E+02    0.25703E-03   -0.37910E-03 16100   0.923E-01    0.226E-02
DAV:   6    -0.560801518449E+02    0.18686E-04   -0.27767E-04 15260   0.242E-01    0.792E-03
DAV:   7    -0.560801517921E+02    0.52838E-07   -0.26647E-05  9310   0.439E-02
   8 F= -.56080152E+02 E0= -.56079844E+02  d E =-.228948E-02
 curvature:  -9.40 expect dE=-0.412E-03 dE for cont linesearch -0.140E-04
 trial: gam= 0.09832 g(F)=  0.439E-04 g(S)=  0.000E+00 ort = 0.187E-04 (trialstep = 0.692E+01)
 search vector abs. value=  0.498E-04
 bond charge predicted
       N       E                     dE             d eps       ncg     rms          rms(c)
DAV:   1    -0.560804465467E+02   -0.29470E-03   -0.12003E-01 10640   0.117E+00    0.229E-02
DAV:   2    -0.560804684216E+02   -0.21875E-04   -0.36461E-04 12075   0.242E-01    0.241E-02
DAV:   3    -0.560804630368E+02    0.53848E-05   -0.10454E-04 13055   0.177E-01    0.128E-02
DAV:   4    -0.560804830208E+02   -0.19984E-04   -0.31874E-04  9100   0.283E-01    0.195E-02
DAV:   5    -0.560804606412E+02    0.22380E-04   -0.31158E-04  9345   0.269E-01    0.512E-03
DAV:   6    -0.560804602845E+02    0.35671E-06   -0.15970E-05  7945   0.540E-02
   9 F= -.56080460E+02 E0= -.56080151E+02  d E =-.308492E-03
 ZBRENT: can't locate minimum, use default step
 trial-energy change:   -0.000308  1 .order   -0.000295   -0.000317   -0.000273
 step:  27.6924(harm= 50.0880)  dis= 0.00739  next Energy=   -56.081297 (dE=-0.114E-02)
 bond charge predicted
       N       E                     dE             d eps       ncg     rms          rms(c)
DAV:   1    -0.560810334921E+02   -0.57285E-03   -0.10799E+00 10500   0.350E+00    0.680E-02
DAV:   2    -0.560812068510E+02   -0.17336E-03   -0.31825E-03 11655   0.686E-01    0.703E-02
DAV:   3    -0.560811579002E+02    0.48951E-04   -0.80275E-04 12600   0.485E-01    0.375E-02
DAV:   4    -0.560813126848E+02   -0.15478E-03   -0.25020E-03 14560   0.783E-01    0.559E-02
DAV:   5    -0.560811237429E+02    0.18894E-03   -0.27269E-03 14560   0.784E-01    0.170E-02
DAV:   6    -0.560811165235E+02    0.72195E-05   -0.20408E-04 15505   0.182E-01    0.824E-03
DAV:   7    -0.560811168358E+02   -0.31239E-06   -0.25734E-05 10010   0.449E-02
  10 F= -.56081117E+02 E0= -.56080809E+02  d E =-.965044E-03
 curvature: -19.96 expect dE=-0.352E-03 dE for cont linesearch -0.111E-03
 ZBRENT: increasing intervall
 opt :  69.2311  next Energy=   -56.080866 (dE=-0.715E-03)
 bond charge predicted
       N       E                     dE             d eps       ncg     rms          rms(c)
DAV:   1    -0.560806698488E+02    0.44667E-03   -0.43208E+00 10500   0.700E+00    0.137E-01
DAV:   2    -0.560813813090E+02   -0.71146E-03   -0.13070E-02 11900   0.139E+00    0.142E-01
DAV:   3    -0.560811676099E+02    0.21370E-03   -0.31561E-03 12845   0.971E-01    0.751E-02
DAV:   4    -0.560816947429E+02   -0.52713E-03   -0.88261E-03 14875   0.145E+00    0.105E-01
DAV:   5    -0.560810451899E+02    0.64955E-03   -0.10727E-02 19495   0.153E+00    0.385E-02
DAV:   6    -0.560809897207E+02    0.55469E-04   -0.93788E-04 18025   0.415E-01    0.167E-02
DAV:   7    -0.560809913475E+02   -0.16268E-05   -0.99890E-05 12285   0.839E-02
  11 F= -.56080991E+02 E0= -.56080689E+02  d E =-.839555E-03
 curvature:  44.83 expect dE= 0.423E-02 dE for cont linesearch  0.800E-03
 ZBRENT: bracketing found
 ZBRENT: interpolating
 opt :  42.5920  next Energy=   -56.081241 (dE=-0.109E-02)
 bond charge predicted
       N       E                     dE             d eps       ncg     rms          rms(c)
DAV:   1    -0.560812359879E+02   -0.24627E-03   -0.17760E+00 10500   0.449E+00    0.878E-02
DAV:   2    -0.560814486327E+02   -0.21264E-03   -0.46427E-03 11725   0.757E-01    0.844E-02
DAV:   3    -0.560813890854E+02    0.59547E-04   -0.13372E-03 13090   0.613E-01    0.507E-02
DAV:   4    -0.560817251103E+02   -0.33602E-03   -0.58956E-03 14000   0.121E+00    0.832E-02
DAV:   5    -0.560812817690E+02    0.44334E-03   -0.48885E-03 19460   0.103E+00    0.158E-02
DAV:   6    -0.560812810498E+02    0.71913E-06   -0.20854E-04 15470   0.157E-01    0.103E-02
DAV:   7    -0.560812808818E+02    0.16806E-06   -0.28267E-05 10990   0.600E-02
  12 F= -.56081281E+02 E0= -.56080976E+02  d E =-.112909E-02
 curvature:  -6.96 expect dE=-0.180E-03 dE for cont linesearch -0.202E-05
 trial: gam= 0.56022 g(F)=  0.258E-04 g(S)=  0.000E+00 ort = 0.381E-05 (trialstep = 0.141E+02)
 search vector abs. value=  0.457E-04
 bond charge predicted
       N       E                     dE             d eps       ncg     rms          rms(c)
DAV:   1    -0.560813998934E+02   -0.11884E-03   -0.45713E-01 10500   0.228E+00    0.468E-02
DAV:   2    -0.560814956326E+02   -0.95739E-04   -0.15158E-03 12670   0.430E-01    0.443E-02
DAV:   3    -0.560814851997E+02    0.10433E-04   -0.44607E-04 13020   0.356E-01    0.259E-02
DAV:   4    -0.560815574544E+02   -0.72255E-04   -0.13079E-03 12600   0.572E-01    0.384E-02
DAV:   5    -0.560814691563E+02    0.88298E-04   -0.11296E-03  9345   0.509E-01    0.941E-03
DAV:   6    -0.560814679014E+02    0.12549E-05   -0.66464E-05  9870   0.105E-01
  13 F= -.56081468E+02 E0= -.56081181E+02  d E =-.187020E-03
 trial-energy change:   -0.000187  1 .order   -0.000173   -0.000393    0.000047
 step:  12.5548(harm= 12.5548)  dis= 0.00264  next Energy=   -56.081456 (dE=-0.176E-03)
 bond charge predicted
       N       E                     dE             d eps       ncg     rms          rms(c)
DAV:   1    -0.560814689763E+02    0.18007E-06   -0.52231E-03 10500   0.245E-01    0.651E-03
DAV:   2    -0.560814699981E+02   -0.10218E-05   -0.35736E-05  8995   0.884E-02
  14 F= -.56081470E+02 E0= -.56081181E+02  d E =-.189116E-03
 curvature: -10.27 expect dE=-0.354E-04 dE for cont linesearch -0.374E-06
 trial: gam= 0.12459 g(F)=  0.345E-05 g(S)=  0.000E+00 ort = 0.129E-05 (trialstep = 0.138E+02)
 search vector abs. value=  0.448E-05
 reached required accuracy - stopping structural energy minimisation
 writing wavefunctions
