 running on   35 total cores
 distrk:  each k-point on   35 cores,    1 groups
 distr:  one band on    1 cores,   35 groups
 using from now: INCAR     
 vasp.5.4.1 24Jun15 (build Oct 26 2018 17:15:27) complex                        
  
 POSCAR found type information on POSCAR  Pt O  H 
 POSCAR found :  3 types and      14 ions
 scaLAPACK will be used

 ----------------------------------------------------------------------------- 
|                                                                             |
|           W    W    AA    RRRRR   N    N  II  N    N   GGGG   !!!           |
|           W    W   A  A   R    R  NN   N  II  NN   N  G    G  !!!           |
|           W    W  A    A  R    R  N N  N  II  N N  N  G       !!!           |
|           W WW W  AAAAAA  RRRRR   N  N N  II  N  N N  G  GGG   !            |
|           WW  WW  A    A  R   R   N   NN  II  N   NN  G    G                |
|           W    W  A    A  R    R  N    N  II  N    N   GGGG   !!!           |
|                                                                             |
|      For optimal performance we recommend to set                            |
|        NCORE= 4 - approx SQRT( number of cores)                             |
|      NCORE specifies how many cores store one orbital (NPAR=cpu/NCORE).     |
|      This setting can  greatly improve the performance of VASP for DFT.     |
|      The default, NPAR=number of cores might be grossly inefficient         |
|      on modern multi-core architectures or massively parallel machines.     |
|      Do your own testing !!!!                                               |
|      Unfortunately you need to use the default for GW and RPA calculations. |
|      (for HF NCORE is supported but not extensively tested yet)             |
|                                                                             |
 ----------------------------------------------------------------------------- 

 LDA part: xc-table for Ceperly-Alder, standard interpolation
 POSCAR, INCAR and KPOINTS ok, starting setup
 WARNING: small aliasing (wrap around) errors must be expected
 FFT: planning ...
 WAVECAR not read
 entering main loop
       N       E                     dE             d eps       ncg     rms          rms(c)
DAV:   1     0.121349228104E+04    0.12135E+04   -0.51364E+04  8610   0.102E+03
DAV:   2     0.248774595057E-01   -0.12135E+04   -0.10537E+04  8610   0.331E+02
DAV:   3    -0.796154254200E+02   -0.79640E+02   -0.75834E+02 11585   0.836E+01
DAV:   4    -0.813457142642E+02   -0.17303E+01   -0.17285E+01  9625   0.155E+01
DAV:   5    -0.813828335719E+02   -0.37119E-01   -0.37114E-01 11480   0.186E+00    0.163E+01
RMM:   6    -0.832865716088E+02   -0.19037E+01   -0.14353E+01  8610   0.154E+01    0.148E+01
RMM:   7    -0.893165506353E+02   -0.60300E+01   -0.71449E+00  8613   0.688E+00    0.197E+01
RMM:   8    -0.817328534184E+02    0.75837E+01   -0.25408E+00  8626   0.473E+00    0.136E+01
RMM:   9    -0.760361042256E+02    0.56967E+01   -0.13078E+00  8620   0.372E+00    0.396E+00
RMM:  10    -0.759470501404E+02    0.89054E-01   -0.30529E-01  8620   0.174E+00    0.377E+00
RMM:  11    -0.758543113731E+02    0.92739E-01   -0.17310E-01  8624   0.135E+00    0.332E+00
RMM:  12    -0.757144980585E+02    0.13981E+00   -0.62471E-02  8620   0.879E-01    0.174E+00
RMM:  13    -0.757361071459E+02   -0.21609E-01   -0.30949E-02  8610   0.662E-01    0.222E+00
RMM:  14    -0.756901422385E+02    0.45965E-01   -0.61477E-03  8610   0.288E-01    0.149E+00
RMM:  15    -0.756616332097E+02    0.28509E-01   -0.35558E-03  8610   0.212E-01    0.655E-01
RMM:  16    -0.756560230817E+02    0.56101E-02   -0.19321E-03  8610   0.142E-01    0.275E-01
RMM:  17    -0.756542303136E+02    0.17928E-02   -0.44888E-04  7478   0.810E-02    0.662E-02
RMM:  18    -0.756538499759E+02    0.38034E-03   -0.11248E-04  5864   0.473E-02    0.499E-02
RMM:  19    -0.756534374096E+02    0.41257E-03   -0.54663E-05  5855   0.227E-02    0.255E-02
RMM:  20    -0.756532992439E+02    0.13817E-03   -0.27145E-05  5683   0.206E-02    0.134E-02
RMM:  21    -0.756531798018E+02    0.11944E-03   -0.43272E-05  5842   0.160E-02    0.256E-02
RMM:  22    -0.756531730537E+02    0.67481E-05   -0.24214E-05  5653   0.139E-02
   1 F= -.75653173E+02 E0= -.75587864E+02  d E =-.756532E+02
 curvature:   0.00 expect dE= 0.000E+00 dE for cont linesearch  0.000E+00
 trial: gam= 0.00000 g(F)=  0.405E+00 g(S)=  0.000E+00 ort = 0.000E+00 (trialstep = 0.100E+01)
 search vector abs. value=  0.405E+00
 bond charge predicted
       N       E                     dE             d eps       ncg     rms          rms(c)
DAV:   1    -0.760083761472E+02   -0.35520E+00   -0.20661E+01  8995   0.110E+01    0.887E-01
RMM:   2    -0.761087756374E+02   -0.10040E+00   -0.31505E-01  8620   0.177E+00    0.236E+00
RMM:   3    -0.762027672982E+02   -0.93992E-01   -0.51470E-02  8674   0.731E-01    0.323E+00
RMM:   4    -0.760312352263E+02    0.17153E+00   -0.18469E-02  8629   0.416E-01    0.605E-01
RMM:   5    -0.760267540265E+02    0.44812E-02   -0.40031E-03  8619   0.199E-01    0.446E-01
RMM:   6    -0.760236480638E+02    0.31060E-02   -0.14327E-03  8581   0.117E-01    0.188E-01
RMM:   7    -0.760234251570E+02    0.22291E-03   -0.10320E-03  8450   0.856E-02    0.154E-01
RMM:   8    -0.760231201081E+02    0.30505E-03   -0.32940E-04  6637   0.671E-02    0.105E-01
RMM:   9    -0.760229166602E+02    0.20345E-03   -0.92372E-05  5508   0.503E-02    0.596E-02
RMM:  10    -0.760228274184E+02    0.89242E-04   -0.39638E-05  5470   0.253E-02
   2 F= -.76022827E+02 E0= -.75956964E+02  d E =-.369654E+00
 ZBRENT: can't locate minimum, use default step
 trial-energy change:   -0.369654  1 .order   -0.371932   -0.404599   -0.339266
 step:   4.0000(harm=  6.1929)  dis= 0.17381  next Energy=   -76.905985 (dE=-0.125E+01)
 bond charge predicted
       N       E                     dE             d eps       ncg     rms          rms(c)
DAV:   1    -0.765964502505E+02   -0.57353E+00   -0.18331E+02  8610   0.336E+01    0.218E+00
RMM:   2    -0.777064063955E+02   -0.11100E+01   -0.33524E+00  8616   0.657E+00    0.712E+00
RMM:   3    -0.771918203519E+02    0.51459E+00   -0.57137E-01 10499   0.204E+00    0.460E+00
RMM:   4    -0.769910631214E+02    0.20076E+00   -0.93817E-02  8624   0.105E+00    0.251E+00
RMM:   5    -0.768986515190E+02    0.92412E-01   -0.31169E-02  8629   0.632E-01    0.117E+00
RMM:   6    -0.768883224134E+02    0.10329E-01   -0.17043E-02  8621   0.415E-01    0.839E-01
RMM:   7    -0.768837578880E+02    0.45645E-02   -0.14809E-02  8618   0.382E-01    0.555E-01
RMM:   8    -0.768806808717E+02    0.30770E-02   -0.76572E-03  8630   0.284E-01    0.355E-01
RMM:   9    -0.768784388098E+02    0.22421E-02   -0.17522E-03  8608   0.142E-01    0.138E-01
RMM:  10    -0.768778381727E+02    0.60064E-03   -0.20827E-04  6209   0.487E-02    0.934E-02
RMM:  11    -0.768775987244E+02    0.23945E-03   -0.42710E-04  7848   0.506E-02    0.142E-01
RMM:  12    -0.768770235267E+02    0.57520E-03   -0.50958E-05  5791   0.265E-02    0.329E-02
RMM:  13    -0.768773263427E+02   -0.30282E-03   -0.10889E-04  5890   0.278E-02    0.195E-01
RMM:  14    -0.768772621182E+02    0.64225E-04   -0.40083E-05  5820   0.254E-02
   3 F= -.76877262E+02 E0= -.76811063E+02  d E =-.122409E+01
 curvature:  -2.54 expect dE=-0.748E+00 dE for cont linesearch -0.401E+00
 ZBRENT: increasing intervall
 opt :  10.0000  next Energy=   -77.871389 (dE=-0.222E+01)
 bond charge predicted
       N       E                     dE             d eps       ncg     rms          rms(c)
DAV:   1    -0.764983079507E+02    0.37902E+00   -0.72859E+02  8610   0.709E+01    0.495E+00
RMM:   2    -0.779580830186E+02   -0.14598E+01   -0.18794E+01  8620   0.149E+01    0.354E+00
RMM:   3    -0.780612745487E+02   -0.10319E+00   -0.20497E+00 10535   0.356E+00    0.298E+00
RMM:   4    -0.784694451833E+02   -0.40817E+00   -0.14415E-01  8673   0.135E+00    0.639E+00
RMM:   5    -0.779548052041E+02    0.51464E+00   -0.40354E-02  8630   0.670E-01    0.194E+00
RMM:   6    -0.779351664123E+02    0.19639E-01   -0.19812E-02  8651   0.469E-01    0.166E+00
RMM:   7    -0.779073897478E+02    0.27777E-01   -0.77194E-02  8613   0.790E-01    0.801E-01
RMM:   8    -0.779124177704E+02   -0.50280E-02   -0.48863E-02  8633   0.727E-01    0.838E-01
RMM:   9    -0.779032030636E+02    0.92147E-02   -0.80880E-03  8887   0.270E-01    0.361E-01
RMM:  10    -0.779012429177E+02    0.19601E-02   -0.18513E-03  8617   0.141E-01    0.205E-01
RMM:  11    -0.778998530917E+02    0.13898E-02   -0.23205E-03  8540   0.132E-01    0.105E-01
RMM:  12    -0.778994971786E+02    0.35591E-03   -0.58424E-04  7949   0.860E-02    0.605E-02
RMM:  13    -0.778994243660E+02    0.72813E-04   -0.99826E-05  5712   0.335E-02
   4 F= -.77899424E+02 E0= -.77836482E+02  d E =-.224625E+01
 curvature:  -6.31 expect dE=-0.145E+01 dE for cont linesearch -0.135E-02
 trial: gam= 0.59212 g(F)=  0.230E+00 g(S)=  0.000E+00 ort =-0.932E-02 (trialstep = 0.280E+01)
 search vector abs. value=  0.361E+00
 bond charge predicted
       N       E                     dE             d eps       ncg     rms          rms(c)
DAV:   1    -0.775259317264E+02    0.37357E+00   -0.10050E+02  8645   0.271E+01    0.377E+00
RMM:   2    -0.828803772492E+02   -0.53544E+01   -0.26360E+00  8644   0.410E+00    0.152E+01
RMM:   3    -0.781997113563E+02    0.46807E+01   -0.85074E-01  8623   0.263E+00    0.722E+00
RMM:   4    -0.776275076224E+02    0.57220E+00   -0.19789E-01  8628   0.125E+00    0.371E+00
RMM:   5    -0.773867229503E+02    0.24078E+00   -0.65112E-02  8626   0.837E-01    0.127E+00
RMM:   6    -0.773678716605E+02    0.18851E-01   -0.24673E-02  8626   0.416E-01    0.788E-01
RMM:   7    -0.773688312713E+02   -0.95961E-03   -0.12766E-02  8621   0.372E-01    0.788E-01
RMM:   8    -0.773609193037E+02    0.79120E-02   -0.74886E-03  8623   0.304E-01    0.367E-01
RMM:   9    -0.773594341298E+02    0.14852E-02   -0.26845E-03  8620   0.184E-01    0.183E-01
RMM:  10    -0.773592212942E+02    0.21284E-03   -0.64569E-04  7602   0.791E-02    0.866E-02
RMM:  11    -0.773595249524E+02   -0.30366E-03   -0.15906E-04  6014   0.484E-02    0.495E-02
RMM:  12    -0.773596149004E+02   -0.89948E-04   -0.29063E-05  5636   0.257E-02
   5 F= -.77359615E+02 E0= -.77295147E+02  d E =0.539809E+00
 trial-energy change:    0.539809  1 .order    0.943710   -0.629271    2.516691
 step:   1.0692(harm=  0.5601)  dis= 0.04335  next Energy=   -78.042057 (dE=-0.143E+00)
 bond charge predicted
       N       E                     dE             d eps       ncg     rms          rms(c)
DAV:   1    -0.781580305302E+02   -0.79851E+00   -0.39879E+01  9170   0.166E+01    0.335E+00
RMM:   2    -0.819358750469E+02   -0.37778E+01   -0.17198E+00  8615   0.303E+00    0.130E+01
RMM:   3    -0.787537372026E+02    0.31821E+01   -0.47119E-01  8626   0.178E+00    0.614E+00
RMM:   4    -0.780479767109E+02    0.70576E+00   -0.22657E-01  8626   0.132E+00    0.123E+00
RMM:   5    -0.780449243468E+02    0.30524E-02   -0.36543E-02  8622   0.652E-01    0.111E+00
RMM:   6    -0.780340436031E+02    0.10881E-01   -0.16438E-02  8648   0.373E-01    0.770E-01
RMM:   7    -0.780337897865E+02    0.25382E-03   -0.92499E-03  8635   0.318E-01    0.653E-01
RMM:   8    -0.780260427991E+02    0.77470E-02   -0.46638E-03  8625   0.226E-01    0.118E-01
RMM:   9    -0.780257828919E+02    0.25991E-03   -0.46689E-04  7661   0.696E-02    0.719E-02
RMM:  10    -0.780257231587E+02    0.59733E-04   -0.92842E-05  5613   0.398E-02
   6 F= -.78025723E+02 E0= -.77962170E+02  d E =-.126299E+00
 curvature:  -0.43 expect dE=-0.505E-01 dE for cont linesearch -0.191E-03
 trial: gam= 0.11306 g(F)=  0.118E+00 g(S)=  0.000E+00 ort =-0.127E-01 (trialstep = 0.245E+01)
 search vector abs. value=  0.120E+00
 bond charge predicted
       N       E                     dE             d eps       ncg     rms          rms(c)
DAV:   1    -0.781942067377E+02   -0.16842E+00   -0.40239E+01  8820   0.149E+01    0.951E-01
RMM:   2    -0.783663955536E+02   -0.17219E+00   -0.70960E-01  8622   0.336E+00    0.271E+00
RMM:   3    -0.783467355101E+02    0.19660E-01   -0.13169E-01 10956   0.959E-01    0.262E+00
RMM:   4    -0.782574918196E+02    0.89244E-01   -0.15773E-02  8643   0.342E-01    0.502E-01
RMM:   5    -0.782573470562E+02    0.14476E-03   -0.39595E-03  8614   0.210E-01    0.598E-01
RMM:   6    -0.782548016669E+02    0.25454E-02   -0.25521E-03  8610   0.149E-01    0.488E-01
RMM:   7    -0.782529090743E+02    0.18926E-02   -0.59011E-03  8624   0.204E-01    0.293E-01
RMM:   8    -0.782516101779E+02    0.12989E-02   -0.13999E-03  8636   0.107E-01    0.981E-02
RMM:   9    -0.782514779451E+02    0.13223E-03   -0.18646E-04  5988   0.496E-02    0.615E-02
RMM:  10    -0.782514503050E+02    0.27640E-04   -0.10759E-04  5596   0.527E-02
   7 F= -.78251450E+02 E0= -.78185689E+02  d E =-.225727E+00
 trial-energy change:   -0.225727  1 .order   -0.227509   -0.286663   -0.168354
 step:   7.2068(harm=  5.9457)  dis= 0.08214  next Energy=   -78.401551 (dE=-0.376E+00)
 bond charge predicted
       N       E                     dE             d eps       ncg     rms          rms(c)
DAV:   1    -0.780597024380E+02    0.19178E+00   -0.15110E+02  8610   0.292E+01    0.201E+00
RMM:   2    -0.784395504226E+02   -0.37985E+00   -0.38578E+00  8616   0.785E+00    0.261E+00
RMM:   3    -0.792945302643E+02   -0.85498E+00   -0.60677E-01  9279   0.185E+00    0.729E+00
RMM:   4    -0.784152370595E+02    0.87929E+00   -0.11170E-01  8636   0.105E+00    0.133E+00
RMM:   5    -0.783944940087E+02    0.20743E-01   -0.16101E-02  8623   0.410E-01    0.107E+00
RMM:   6    -0.783875181545E+02    0.69759E-02   -0.71185E-03  8623   0.256E-01    0.903E-01
RMM:   7    -0.783785870437E+02    0.89311E-02   -0.24517E-02  8620   0.426E-01    0.512E-01
RMM:   8    -0.783751017721E+02    0.34853E-02   -0.13935E-02  8744   0.335E-01    0.187E-01
RMM:   9    -0.783752873220E+02   -0.18555E-03   -0.20608E-03  8634   0.161E-01    0.224E-01
RMM:  10    -0.783744915984E+02    0.79572E-03   -0.47647E-04  8327   0.770E-02    0.110E-01
RMM:  11    -0.783741250708E+02    0.36653E-03   -0.54542E-04  8262   0.614E-02    0.626E-02
RMM:  12    -0.783740665357E+02    0.58535E-04   -0.13970E-04  5749   0.443E-02
   8 F= -.78374067E+02 E0= -.78306775E+02  d E =-.348343E+00
 curvature:  -2.66 expect dE=-0.970E-01 dE for cont linesearch -0.528E-02
 ZBRENT: interpolating
 opt :   6.3331  next Energy=   -78.380816 (dE=-0.355E+00)
 bond charge predicted
       N       E                     dE             d eps       ncg     rms          rms(c)
DAV:   1    -0.783756866219E+02   -0.15616E-02   -0.51139E+00 10990   0.526E+00    0.331E-01
RMM:   2    -0.783847946235E+02   -0.91080E-02   -0.74557E-02  8610   0.969E-01    0.548E-01
RMM:   3    -0.784116783152E+02   -0.26884E-01   -0.10739E-02  9820   0.279E-01    0.142E+00
RMM:   4    -0.783819274049E+02    0.29751E-01   -0.25659E-03  8612   0.145E-01    0.190E-01
RMM:   5    -0.783811752380E+02    0.75217E-03   -0.54240E-04  8236   0.761E-02    0.148E-01
RMM:   6    -0.783810867082E+02    0.88530E-04   -0.25686E-04  6389   0.524E-02
   9 F= -.78381087E+02 E0= -.78313873E+02  d E =-.355364E+00
 curvature:  -3.39 expect dE=-0.923E-01 dE for cont linesearch -0.916E-05
 trial: gam= 0.26053 g(F)=  0.272E-01 g(S)=  0.000E+00 ort =-0.569E-03 (trialstep = 0.323E+01)
 search vector abs. value=  0.350E-01
 bond charge predicted
       N       E                     dE             d eps       ncg     rms          rms(c)
DAV:   1    -0.784213128752E+02   -0.40138E-01   -0.13200E+01  9135   0.839E+00    0.498E-01
RMM:   2    -0.785493879201E+02   -0.12808E+00   -0.20485E-01  8611   0.165E+00    0.270E+00
RMM:   3    -0.784428591936E+02    0.10653E+00   -0.27736E-02  9921   0.506E-01    0.511E-01
RMM:   4    -0.784403329581E+02    0.25262E-02   -0.33964E-03  8627   0.193E-01    0.428E-01
RMM:   5    -0.784385439992E+02    0.17890E-02   -0.19167E-03  8610   0.144E-01    0.277E-01
RMM:   6    -0.784375929365E+02    0.95106E-03   -0.24895E-03  8591   0.135E-01    0.110E-01
RMM:   7    -0.784375854863E+02    0.74502E-05   -0.31433E-04  6958   0.673E-02
  10 F= -.78437585E+02 E0= -.78369528E+02  d E =-.564988E-01
 trial-energy change:   -0.056499  1 .order   -0.055965   -0.087348   -0.024581
 step:   4.4121(harm=  4.4945)  dis= 0.02677  next Energy=   -78.442111 (dE=-0.610E-01)
 bond charge predicted
       N       E                     dE             d eps       ncg     rms          rms(c)
DAV:   1    -0.784391951428E+02   -0.16022E-02   -0.17680E+00 10010   0.308E+00    0.193E-01
RMM:   2    -0.784427441495E+02   -0.35490E-02   -0.24813E-02  8616   0.548E-01    0.332E-01
RMM:   3    -0.784437493071E+02   -0.10052E-02   -0.32439E-03 10643   0.165E-01    0.406E-01
RMM:   4    -0.784421433678E+02    0.16059E-02   -0.62608E-04  8037   0.754E-02    0.241E-01
RMM:   5    -0.784412872084E+02    0.85616E-03   -0.30472E-04  6841   0.615E-02    0.826E-02
RMM:   6    -0.784412543748E+02    0.32834E-04   -0.43763E-04  7649   0.619E-02
  11 F= -.78441254E+02 E0= -.78372657E+02  d E =-.601677E-01
 curvature:  -2.90 expect dE=-0.142E+00 dE for cont linesearch -0.516E-04
 trial: gam= 1.81846 g(F)=  0.489E-01 g(S)=  0.000E+00 ort =-0.790E-03 (trialstep = 0.750E+00)
 search vector abs. value=  0.162E+00
 bond charge predicted
       N       E                     dE             d eps       ncg     rms          rms(c)
DAV:   1    -0.784684030907E+02   -0.27116E-01   -0.46591E+00  9240   0.529E+00    0.431E-01
RMM:   2    -0.786372326369E+02   -0.16883E+00   -0.74888E-02  8613   0.930E-01    0.339E+00
RMM:   3    -0.784785044437E+02    0.15873E+00   -0.15988E-02  8620   0.360E-01    0.528E-01
RMM:   4    -0.784738090489E+02    0.46954E-02   -0.46944E-03  8622   0.241E-01    0.361E-01
RMM:   5    -0.784718323670E+02    0.19767E-02   -0.10072E-03  8584   0.110E-01    0.152E-01
RMM:   6    -0.784716870459E+02    0.14532E-03   -0.43027E-04  7859   0.697E-02    0.125E-01
RMM:   7    -0.784714832520E+02    0.20379E-03   -0.34493E-04  7248   0.644E-02    0.714E-02
RMM:   8    -0.784714488652E+02    0.34387E-04   -0.17478E-04  5771   0.525E-02
  12 F= -.78471449E+02 E0= -.78402556E+02  d E =-.301945E-01
 trial-energy change:   -0.030194  1 .order   -0.030909   -0.035597   -0.026221
 step:   2.8484(harm=  2.8484)  dis= 0.03612  next Energy=   -78.508825 (dE=-0.676E-01)
 bond charge predicted
       N       E                     dE             d eps       ncg     rms          rms(c)
DAV:   1    -0.784682250514E+02    0.32582E-02   -0.36391E+01  8610   0.148E+01    0.126E+00
RMM:   2    -0.799891174792E+02   -0.15209E+01   -0.74494E-01  8613   0.334E+00    0.918E+00
RMM:   3    -0.785702835337E+02    0.14188E+01   -0.15563E-01  8751   0.108E+00    0.168E+00
RMM:   4    -0.785184881656E+02    0.51795E-01   -0.42403E-02  8619   0.734E-01    0.955E-01
RMM:   5    -0.785062961314E+02    0.12192E-01   -0.83619E-03  8630   0.307E-01    0.558E-01
RMM:   6    -0.785030417371E+02    0.32544E-02   -0.34169E-03  8610   0.192E-01    0.298E-01
RMM:   7    -0.785029002077E+02    0.14153E-03   -0.32116E-03  8621   0.174E-01    0.285E-01
RMM:   8    -0.785019979825E+02    0.90223E-03   -0.16630E-03  8619   0.127E-01    0.153E-01
RMM:   9    -0.785016617327E+02    0.33625E-03   -0.35596E-04  7198   0.629E-02    0.635E-02
RMM:  10    -0.785015800418E+02    0.81691E-04   -0.78232E-05  5705   0.368E-02
  13 F= -.78501580E+02 E0= -.78432260E+02  d E =-.603257E-01
 curvature:  -4.86 expect dE=-0.255E-01 dE for cont linesearch -0.522E-03
 trial: gam= 0.06280 g(F)=  0.525E-02 g(S)=  0.000E+00 ort =-0.417E-02 (trialstep = 0.117E+01)
 search vector abs. value=  0.536E-02
 bond charge predicted
       N       E                     dE             d eps       ncg     rms          rms(c)
DAV:   1    -0.785065455096E+02   -0.48838E-02   -0.38348E-01 11270   0.145E+00    0.684E-02
RMM:   2    -0.785117138523E+02   -0.51683E-02   -0.48602E-03  8610   0.234E-01    0.578E-01
RMM:   3    -0.785071696223E+02    0.45442E-02   -0.73767E-04  8393   0.902E-02    0.779E-02
RMM:   4    -0.785070539583E+02    0.11566E-03   -0.87124E-05  5680   0.389E-02    0.585E-02
RMM:   5    -0.785070182177E+02    0.35741E-04   -0.38917E-05  5497   0.323E-02
  14 F= -.78507018E+02 E0= -.78437803E+02  d E =-.543818E-02
 ZBRENT: can't locate minimum, use default step
 trial-energy change:   -0.005438  1 .order   -0.005314   -0.005834   -0.004795
 step:   4.6796(harm=  6.5659)  dis= 0.00985  next Energy=   -78.517952 (dE=-0.164E-01)
 bond charge predicted
       N       E                     dE             d eps       ncg     rms          rms(c)
DAV:   1    -0.785142663486E+02   -0.72124E-02   -0.34603E+00  8645   0.437E+00    0.224E-01
RMM:   2    -0.785697356791E+02   -0.55469E-01   -0.46221E-02  8613   0.759E-01    0.192E+00
RMM:   3    -0.785202153439E+02    0.49520E-01   -0.78032E-03  9037   0.254E-01    0.270E-01
RMM:   4    -0.785187667747E+02    0.14486E-02   -0.10085E-03  8539   0.129E-01    0.187E-01
RMM:   5    -0.785182964744E+02    0.47030E-03   -0.20326E-04  5885   0.537E-02    0.954E-02
RMM:   6    -0.785183721131E+02   -0.75639E-04   -0.50380E-04  8220   0.711E-02
  15 F= -.78518372E+02 E0= -.78449613E+02  d E =-.167921E-01
 curvature:  -3.10 expect dE=-0.494E-02 dE for cont linesearch -0.257E-02
 ZBRENT: increasing intervall
 opt :  11.6991  next Energy=   -78.519183 (dE=-0.176E-01)
 bond charge predicted
       N       E                     dE             d eps       ncg     rms          rms(c)
DAV:   1    -0.784992048373E+02    0.19092E-01   -0.13792E+01  8610   0.875E+00    0.501E-01
RMM:   2    -0.788047947651E+02   -0.30559E+00   -0.21498E-01  8613   0.176E+00    0.457E+00
RMM:   3    -0.785282978243E+02    0.27650E+00   -0.41288E-02  8990   0.549E-01    0.656E-01
RMM:   4    -0.785180967078E+02    0.10201E-01   -0.53729E-03  8636   0.310E-01    0.314E-01
RMM:   5    -0.785166526903E+02    0.14440E-02   -0.11257E-03  8569   0.118E-01    0.187E-01
RMM:   6    -0.785178137266E+02   -0.11610E-02   -0.15045E-03  8554   0.110E-01    0.352E-01
RMM:   7    -0.785165017024E+02    0.13120E-02   -0.94537E-04  8514   0.929E-02    0.188E-01
RMM:   8    -0.785160567066E+02    0.44500E-03   -0.21232E-04  6120   0.464E-02    0.503E-02
RMM:   9    -0.785160189379E+02    0.37769E-04   -0.74478E-05  5481   0.448E-02
  16 F= -.78516019E+02 E0= -.78447867E+02  d E =-.144389E-01
 curvature:  -0.98 expect dE=-0.355E-02 dE for cont linesearch -0.106E-02
 trial: gam= 0.00000 g(F)=  0.362E-02 g(S)=  0.000E+00 ort =-0.241E-02 (trialstep = 0.328E+01)
 search vector abs. value=  0.362E-02
 bond charge predicted
       N       E                     dE             d eps       ncg     rms          rms(c)
DAV:   1    -0.785230844420E+02   -0.70277E-02   -0.21408E+00 10220   0.351E+00    0.183E-01
RMM:   2    -0.785267723642E+02   -0.36879E-02   -0.28792E-02  8621   0.584E-01    0.325E-01
RMM:   3    -0.785310000635E+02   -0.42277E-02   -0.28000E-03  9301   0.181E-01    0.622E-01
RMM:   4    -0.785258823060E+02    0.51178E-02   -0.78543E-04  8473   0.887E-02    0.172E-01
RMM:   5    -0.785253833436E+02    0.49896E-03   -0.16176E-04  5779   0.483E-02    0.753E-02
RMM:   6    -0.785253186842E+02    0.64659E-04   -0.18857E-04  5797   0.471E-02
  17 F= -.78525319E+02 E0= -.78457203E+02  d E =-.929975E-02
 trial-energy change:   -0.009300  1 .order   -0.008993   -0.011854   -0.006133
 step:   6.7878(harm=  6.7878)  dis= 0.01060  next Energy=   -78.528300 (dE=-0.123E-01)
 bond charge predicted
       N       E                     dE             d eps       ncg     rms          rms(c)
DAV:   1    -0.785257060345E+02   -0.32269E-03   -0.24559E+00  8610   0.376E+00    0.212E-01
RMM:   2    -0.785314821747E+02   -0.57761E-02   -0.34747E-02  8625   0.648E-01    0.459E-01
RMM:   3    -0.785351661655E+02   -0.36840E-02   -0.38028E-03  9617   0.199E-01    0.682E-01
RMM:   4    -0.785289851664E+02    0.61810E-02   -0.11954E-03  8600   0.116E-01    0.184E-01
RMM:   5    -0.785284510871E+02    0.53408E-03   -0.22886E-04  6136   0.553E-02    0.908E-02
RMM:   6    -0.785284899361E+02   -0.38849E-04   -0.21343E-04  5924   0.549E-02
  18 F= -.78528490E+02 E0= -.78460536E+02  d E =-.124710E-01
 curvature:  -3.39 expect dE=-0.938E-02 dE for cont linesearch -0.122E-04
 trial: gam= 0.79558 g(F)=  0.276E-02 g(S)=  0.000E+00 ort =-0.114E-03 (trialstep = 0.295E+01)
 search vector abs. value=  0.487E-02
 bond charge predicted
       N       E                     dE             d eps       ncg     rms          rms(c)
DAV:   1    -0.785288584368E+02   -0.40735E-03   -0.12296E+00  8785   0.264E+00    0.257E-01
RMM:   2    -0.785765328653E+02   -0.47674E-01   -0.20376E-02  8626   0.461E-01    0.181E+00
RMM:   3    -0.785315561786E+02    0.44977E-01   -0.51196E-03  8638   0.224E-01    0.320E-01
RMM:   4    -0.785304186009E+02    0.11376E-02   -0.12378E-03  8610   0.121E-01    0.236E-01
RMM:   5    -0.785294935591E+02    0.92504E-03   -0.30140E-04  6951   0.625E-02    0.894E-02
RMM:   6    -0.785294657286E+02    0.27830E-04   -0.23946E-04  6145   0.563E-02
  19 F= -.78529466E+02 E0= -.78461423E+02  d E =-.975792E-03
 trial-energy change:   -0.000976  1 .order   -0.000976   -0.007898    0.005945
 step:   1.6852(harm=  1.6852)  dis= 0.00271  next Energy=   -78.530743 (dE=-0.225E-02)
 bond charge predicted
       N       E                     dE             d eps       ncg     rms          rms(c)
DAV:   1    -0.785305884082E+02   -0.10948E-02   -0.22678E-01 10045   0.114E+00    0.124E-01
RMM:   2    -0.785469082703E+02   -0.16320E-01   -0.47107E-03  8629   0.226E-01    0.105E+00
RMM:   3    -0.785314143283E+02    0.15494E-01   -0.13954E-03  8595   0.111E-01    0.184E-01
RMM:   4    -0.785307789283E+02    0.63540E-03   -0.46747E-04  7676   0.796E-02    0.922E-02
RMM:   5    -0.785306693098E+02    0.10962E-03   -0.74056E-05  5594   0.389E-02    0.424E-02
RMM:   6    -0.785306591001E+02    0.10210E-04   -0.34261E-05  5413   0.251E-02
  20 F= -.78530659E+02 E0= -.78462730E+02  d E =-.216916E-02
 curvature:  -1.54 expect dE=-0.127E-02 dE for cont linesearch -0.542E-07
 trial: gam= 0.25670 g(F)=  0.827E-03 g(S)=  0.000E+00 ort = 0.131E-04 (trialstep = 0.270E+01)
 search vector abs. value=  0.115E-02
 bond charge predicted
       N       E                     dE             d eps       ncg     rms          rms(c)
DAV:   1    -0.785323229220E+02   -0.16536E-02   -0.34309E-01  8610   0.146E+00    0.893E-02
RMM:   2    -0.785384381625E+02   -0.61152E-02   -0.50478E-03  8603   0.248E-01    0.632E-01
RMM:   3    -0.785329952984E+02    0.54429E-02   -0.70754E-04  8394   0.791E-02    0.116E-01
RMM:   4    -0.785328004788E+02    0.19482E-03   -0.13822E-04  5758   0.473E-02    0.791E-02
RMM:   5    -0.785327254616E+02    0.75017E-04   -0.60306E-05  5539   0.390E-02
  21 F= -.78532725E+02 E0= -.78464933E+02  d E =-.206636E-02
 ZBRENT: can't locate minimum, use default step
 trial-energy change:   -0.002066  1 .order   -0.002046   -0.002242   -0.001850
 step:  10.8003(harm= 15.4594)  dis= 0.01194  next Energy=   -78.537076 (dE=-0.642E-02)
 bond charge predicted
       N       E                     dE             d eps       ncg     rms          rms(c)
DAV:   1    -0.785337655899E+02   -0.96511E-03   -0.31000E+00  8610   0.439E+00    0.283E-01
RMM:   2    -0.785862572456E+02   -0.52492E-01   -0.44666E-02  8613   0.729E-01    0.186E+00
RMM:   3    -0.785401692143E+02    0.46088E-01   -0.63604E-03  8781   0.232E-01    0.384E-01
RMM:   4    -0.785381733213E+02    0.19959E-02   -0.14804E-03  8612   0.142E-01    0.261E-01
RMM:   5    -0.785371692424E+02    0.10041E-02   -0.42833E-04  7896   0.694E-02    0.815E-02
RMM:   6    -0.785372933860E+02   -0.12414E-03   -0.55502E-04  8327   0.728E-02    0.106E-01
RMM:   7    -0.785371229255E+02    0.17046E-03   -0.11299E-04  5673   0.379E-02    0.451E-02
RMM:   8    -0.785371040599E+02    0.18866E-04   -0.37057E-05  5374   0.313E-02
  22 F= -.78537104E+02 E0= -.78469821E+02  d E =-.644496E-02
 curvature:  -9.32 expect dE=-0.315E-02 dE for cont linesearch -0.146E-02
 ZBRENT: increasing intervall
 opt :  27.0007  next Energy=   -78.539808 (dE=-0.915E-02)
 bond charge predicted
       N       E                     dE             d eps       ncg     rms          rms(c)
DAV:   1    -0.785239065135E+02    0.13216E-01   -0.12358E+01  8610   0.876E+00    0.564E-01
RMM:   2    -0.787430708366E+02   -0.21916E+00   -0.19644E-01  8614   0.163E+00    0.382E+00
RMM:   3    -0.785501379073E+02    0.19293E+00   -0.28683E-02  8960   0.472E-01    0.745E-01
RMM:   4    -0.785425610743E+02    0.75768E-02   -0.60367E-03  8638   0.294E-01    0.524E-01
RMM:   5    -0.785386714497E+02    0.38896E-02   -0.15796E-03  8606   0.139E-01    0.183E-01
RMM:   6    -0.785394747307E+02   -0.80328E-03   -0.20777E-03  8610   0.148E-01    0.260E-01
RMM:   7    -0.785387570011E+02    0.71773E-03   -0.10132E-03  8570   0.101E-01    0.159E-01
RMM:   8    -0.785384310287E+02    0.32597E-03   -0.15747E-04  5912   0.475E-02    0.789E-02
RMM:   9    -0.785383351588E+02    0.95870E-04   -0.60533E-05  5507   0.405E-02
  23 F= -.78538335E+02 E0= -.78472099E+02  d E =-.767606E-02
 curvature: -17.20 expect dE=-0.191E-01 dE for cont linesearch -0.515E-03
 trial: gam= 0.00000 g(F)=  0.111E-02 g(S)=  0.000E+00 ort =-0.186E-03 (trialstep = 0.756E+01)
 search vector abs. value=  0.111E-02
 bond charge predicted
       N       E                     dE             d eps       ncg     rms          rms(c)
DAV:   1    -0.785378773017E+02    0.55373E-03   -0.22730E+00 11305   0.352E+00    0.202E-01
RMM:   2    -0.785495077057E+02   -0.11630E-01   -0.30391E-02  8617   0.611E-01    0.792E-01
RMM:   3    -0.785418411008E+02    0.76666E-02   -0.40103E-03  9854   0.201E-01    0.297E-01
RMM:   4    -0.785410182632E+02    0.82284E-03   -0.65977E-04  8357   0.848E-02    0.197E-01
RMM:   5    -0.785405108813E+02    0.50738E-03   -0.26947E-04  6476   0.549E-02    0.106E-01
RMM:   6    -0.785405195920E+02   -0.87108E-05   -0.51197E-04  8383   0.762E-02
  24 F= -.78540520E+02 E0= -.78474241E+02  d E =-.218443E-02
 trial-energy change:   -0.002184  1 .order   -0.001796   -0.008399    0.004807
 step:   4.8083(harm=  4.8083)  dis= 0.00425  next Energy=   -78.541006 (dE=-0.267E-02)
 bond charge predicted
       N       E                     dE             d eps       ncg     rms          rms(c)
DAV:   1    -0.785409759821E+02   -0.46510E-03   -0.30145E-01 11130   0.128E+00    0.896E-02
RMM:   2    -0.785435128633E+02   -0.25369E-02   -0.43425E-03  8621   0.236E-01    0.402E-01
RMM:   3    -0.785420315728E+02    0.14813E-02   -0.68110E-04  8399   0.784E-02    0.214E-01
RMM:   4    -0.785413291616E+02    0.70241E-03   -0.19153E-04  6041   0.540E-02    0.677E-02
RMM:   5    -0.785412722411E+02    0.56921E-04   -0.70944E-05  5548   0.385E-02
  25 F= -.78541272E+02 E0= -.78474944E+02  d E =-.293708E-02
 curvature:  -2.40 expect dE=-0.588E-02 dE for cont linesearch -0.751E-05
 trial: gam= 2.14868 g(F)=  0.245E-02 g(S)=  0.000E+00 ort = 0.589E-04 (trialstep = 0.995E+00)
 search vector abs. value=  0.783E-02
 bond charge predicted
       N       E                     dE             d eps       ncg     rms          rms(c)
DAV:   1    -0.785428273178E+02   -0.14982E-02   -0.39218E-01  8820   0.155E+00    0.118E-01
RMM:   2    -0.785545347401E+02   -0.11707E-01   -0.72485E-03  8612   0.271E-01    0.889E-01
RMM:   3    -0.785438179702E+02    0.10717E-01   -0.11436E-03  8589   0.109E-01    0.180E-01
RMM:   4    -0.785433354894E+02    0.48248E-03   -0.39700E-04  7394   0.734E-02    0.108E-01
RMM:   5    -0.785431591927E+02    0.17630E-03   -0.85889E-05  5616   0.434E-02    0.329E-02
RMM:   6    -0.785431524602E+02    0.67325E-05   -0.36550E-05  5517   0.256E-02
  26 F= -.78543152E+02 E0= -.78476853E+02  d E =-.188022E-02
 trial-energy change:   -0.001880  1 .order   -0.001972   -0.002559   -0.001386
 step:   2.1696(harm=  2.1696)  dis= 0.00544  next Energy=   -78.544063 (dE=-0.279E-02)
 bond charge predicted
       N       E                     dE             d eps       ncg     rms          rms(c)
DAV:   1    -0.785436711065E+02   -0.51191E-03   -0.55147E-01  9590   0.183E+00    0.129E-01
RMM:   2    -0.785510674907E+02   -0.73964E-02   -0.88495E-03  8614   0.311E-01    0.693E-01
RMM:   3    -0.785447414011E+02    0.63261E-02   -0.10348E-03  8603   0.105E-01    0.181E-01
RMM:   4    -0.785443447650E+02    0.39664E-03   -0.32721E-04  6945   0.649E-02    0.112E-01
RMM:   5    -0.785441703941E+02    0.17437E-03   -0.10034E-04  5623   0.490E-02    0.475E-02
RMM:   6    -0.785441728257E+02   -0.24316E-05   -0.79989E-05  5639   0.333E-02
  27 F= -.78544173E+02 E0= -.78477909E+02  d E =-.290058E-02
 curvature:  -3.30 expect dE=-0.110E-02 dE for cont linesearch -0.317E-04
 trial: gam=-0.07262 g(F)=  0.334E-03 g(S)=  0.000E+00 ort = 0.274E-03 (trialstep = 0.123E+01)
 search vector abs. value=  0.336E-03
 bond charge predicted
       N       E                     dE             d eps       ncg     rms          rms(c)
DAV:   1    -0.785443914073E+02   -0.22101E-03   -0.28273E-02 11340   0.423E-01    0.363E-02
RMM:   2    -0.785459473773E+02   -0.15560E-02   -0.59432E-04  7812   0.795E-02    0.318E-01
RMM:   3    -0.785445015250E+02    0.14459E-02   -0.11968E-04  5701   0.378E-02    0.675E-02
RMM:   4    -0.785444211154E+02    0.80410E-04   -0.55497E-05  5613   0.341E-02
  28 F= -.78544421E+02 E0= -.78478192E+02  d E =-.248290E-03
 trial-energy change:   -0.000248  1 .order   -0.000288   -0.000387   -0.000189
 step:   2.4070(harm=  2.4070)  dis= 0.00122  next Energy=   -78.544551 (dE=-0.378E-03)
 bond charge predicted
       N       E                     dE             d eps       ncg     rms          rms(c)
DAV:   1    -0.785445362567E+02   -0.34732E-04   -0.26231E-02  9485   0.400E-01    0.343E-02
RMM:   2    -0.785462399124E+02   -0.17037E-02   -0.49633E-04  7416   0.741E-02    0.339E-01
RMM:   3    -0.785445998149E+02    0.16401E-02   -0.11264E-04  5697   0.396E-02    0.358E-02
RMM:   4    -0.785445757525E+02    0.24062E-04   -0.38080E-05  5592   0.296E-02
  29 F= -.78544576E+02 E0= -.78478413E+02  d E =-.402927E-03
 curvature:  -1.29 expect dE=-0.249E-03 dE for cont linesearch -0.171E-04
 trial: gam= 0.29663 g(F)=  0.194E-03 g(S)=  0.000E+00 ort = 0.669E-04 (trialstep = 0.147E+01)
 search vector abs. value=  0.263E-03
 reached required accuracy - stopping structural energy minimisation
 writing wavefunctions
