 running on   40 total cores
 distrk:  each k-point on   40 cores,    1 groups
 distr:  one band on    1 cores,   40 groups
 using from now: INCAR     
 vasp.5.4.1 05Feb16 (build Sep 02 2018 21:45:25) complex                        
  
 POSCAR found type information on POSCAR  Cu
 POSCAR found :  1 types and       4 ions
 scaLAPACK will be used

 ----------------------------------------------------------------------------- 
|                                                                             |
|           W    W    AA    RRRRR   N    N  II  N    N   GGGG   !!!           |
|           W    W   A  A   R    R  NN   N  II  NN   N  G    G  !!!           |
|           W    W  A    A  R    R  N N  N  II  N N  N  G       !!!           |
|           W WW W  AAAAAA  RRRRR   N  N N  II  N  N N  G  GGG   !            |
|           WW  WW  A    A  R   R   N   NN  II  N   NN  G    G                |
|           W    W  A    A  R    R  N    N  II  N    N   GGGG   !!!           |
|                                                                             |
|      For optimal performance we recommend to set                            |
|        NCORE= 4 - approx SQRT( number of cores)                             |
|      NCORE specifies how many cores store one orbital (NPAR=cpu/NCORE).     |
|      This setting can  greatly improve the performance of VASP for DFT.     |
|      The default, NPAR=number of cores might be grossly inefficient         |
|      on modern multi-core architectures or massively parallel machines.     |
|      Do your own testing !!!!                                               |
|      Unfortunately you need to use the default for GW and RPA calculations. |
|      (for HF NCORE is supported but not extensively tested yet)             |
|                                                                             |
 ----------------------------------------------------------------------------- 


 ----------------------------------------------------------------------------- 
|                                                                             |
|  ADVICE TO THIS USER RUNNING 'VASP/VAMP'   (HEAR YOUR MASTER'S VOICE ...):  |
|                                                                             |
|      You have a (more or less) 'small supercell' and for smaller cells      |
|      it is recommended  to use the reciprocal-space projection scheme!      |
|      The real space optimization is not  efficient for small cells and it   |
|      is also less accurate ...                                              |
|      Therefore set LREAL=.FALSE. in the  INCAR file                         |
|                                                                             |
 ----------------------------------------------------------------------------- 

 LDA part: xc-table for Ceperly-Alder, standard interpolation
 POSCAR, INCAR and KPOINTS ok, starting setup
 WARNING: small aliasing (wrap around) errors must be expected
 FFT: planning ...
 WAVECAR not read
 entering main loop
       N       E                     dE             d eps       ncg     rms          rms(c)
DAV:   1     0.475876021500E+02    0.47588E+02   -0.23990E+04  9600   0.166E+03
DAV:   2    -0.181265817899E+02   -0.65714E+02   -0.65197E+02 11280   0.118E+02
DAV:   3    -0.182931684556E+02   -0.16659E+00   -0.16658E+00 12400   0.817E+00
DAV:   4    -0.182932706622E+02   -0.10221E-03   -0.10221E-03 12320   0.141E-01
DAV:   5    -0.182932707273E+02   -0.65131E-07   -0.64801E-07 12800   0.180E-03    0.137E+01
DAV:   6    -0.161921302835E+02    0.21011E+01   -0.64413E+01  9680   0.615E+01    0.608E+00
DAV:   7    -0.149609242450E+02    0.12312E+01   -0.94927E+00  9600   0.238E+01    0.122E+00
DAV:   8    -0.149130117494E+02    0.47912E-01   -0.12568E-02 10800   0.789E-01    0.557E-01
DAV:   9    -0.149067234829E+02    0.62883E-02   -0.44732E-02 10640   0.149E+00    0.507E-02
DAV:  10    -0.149067394561E+02   -0.15973E-04   -0.17106E-04 11080   0.107E-01
   1 F= -.14906739E+02 E0= -.14906678E+02  d E =-.149067E+02
 curvature:   0.00 expect dE= 0.000E+00 dE for cont linesearch  0.000E+00
 trial: gam= 0.00000 g(F)=  0.413E-51 g(S)=  0.392E-02 ort = 0.000E+00 (trialstep = 0.100E+01)
 search vector abs. value=  0.392E-02
 bond charge predicted
       N       E                     dE             d eps       ncg     rms          rms(c)
DAV:   1    -0.149340035073E+02   -0.27280E-01   -0.38593E-01  9600   0.505E+00    0.117E+00
DAV:   2    -0.149173493005E+02    0.16654E-01   -0.34782E-01  9600   0.440E+00    0.395E-01
DAV:   3    -0.149108867662E+02    0.64625E-02   -0.56263E-02  9600   0.185E+00    0.201E-01
DAV:   4    -0.149100097776E+02    0.87699E-03   -0.16592E-03 13880   0.187E-01    0.130E-02
DAV:   5    -0.149100116602E+02   -0.18826E-05   -0.10742E-05  6480   0.241E-02
   2 F= -.14910012E+02 E0= -.14909947E+02  d E =-.327220E-02
 trial-energy change:   -0.003272  1 .order   -0.003322   -0.003921   -0.002722
 step:   3.2694(harm=  3.2694)  dis= 0.00000  next Energy=   -14.913150 (dE=-0.641E-02)
 bond charge predicted
       N       E                     dE             d eps       ncg     rms          rms(c)
DAV:   1    -0.150352632358E+02   -0.12525E+00   -0.19966E+00  9600   0.115E+01    0.262E+00
DAV:   2    -0.149501038685E+02    0.85159E-01   -0.17519E+00  9600   0.986E+00    0.883E-01
DAV:   3    -0.149177572315E+02    0.32347E-01   -0.28708E-01  9600   0.417E+00    0.463E-01
DAV:   4    -0.149131904332E+02    0.45668E-02   -0.98103E-03 14640   0.470E-01    0.389E-02
DAV:   5    -0.149131832562E+02    0.71770E-05   -0.12033E-04  9760   0.841E-02
   3 F= -.14913183E+02 E0= -.14913115E+02  d E =-.644380E-02
 curvature:  -1.63 expect dE=-0.261E-05 dE for cont linesearch -0.261E-05
 trial: gam=-0.01978 g(F)=  0.132E-50 g(S)=  0.160E-05 ort = 0.792E-04 (trialstep = 0.145E+01)
 search vector abs. value=  0.751E-09
 reached required accuracy - stopping structural energy minimisation
 writing wavefunctions
