 vasp.5.4.1 05Feb16 (build Nov 22 2018 20:17:51) complex                        
  
 POSCAR found type information on POSCAR  Pd
 02/POSCAR found :  1 types and      33 ions
 scaLAPACK will be used

 ----------------------------------------------------------------------------- 
|                                                                             |
|           W    W    AA    RRRRR   N    N  II  N    N   GGGG   !!!           |
|           W    W   A  A   R    R  NN   N  II  NN   N  G    G  !!!           |
|           W    W  A    A  R    R  N N  N  II  N N  N  G       !!!           |
|           W WW W  AAAAAA  RRRRR   N  N N  II  N  N N  G  GGG   !            |
|           WW  WW  A    A  R   R   N   NN  II  N   NN  G    G                |
|           W    W  A    A  R    R  N    N  II  N    N   GGGG   !!!           |
|                                                                             |
|      For optimal performance we recommend to set                            |
|        NCORE= 4 - approx SQRT( number of cores)                             |
|      NCORE specifies how many cores store one orbital (NPAR=cpu/NCORE).     |
|      This setting can  greatly improve the performance of VASP for DFT.     |
|      The default, NPAR=number of cores might be grossly inefficient         |
|      on modern multi-core architectures or massively parallel machines.     |
|      Do your own testing !!!!                                               |
|      Unfortunately you need to use the default for GW and RPA calculations. |
|      (for HF NCORE is supported but not extensively tested yet)             |
|                                                                             |
 ----------------------------------------------------------------------------- 

 LDA part: xc-table for Ceperly-Alder, standard interpolation
 POSCAR found type information on POSCAR  Pd
 00/POSCAR found :  1 types and      33 ions
 POSCAR found type information on POSCAR  Pd
 06/POSCAR found :  1 types and      33 ions
 Jacobian:    20.4934437754924     
 POSCAR, INCAR and KPOINTS ok, starting setup
 WARNING: small aliasing (wrap around) errors must be expected
 FFT: planning ...
 WAVECAR not read
 entering main loop
       N       E                     dE             d eps       ncg     rms          rms(c)
DAV:   1     0.285245696678E+04    0.28525E+04   -0.13716E+05 10000   0.138E+03
DAV:   2     0.801513617885E+02   -0.27723E+04   -0.25926E+04 10208   0.415E+02
DAV:   3    -0.149733598443E+03   -0.22988E+03   -0.20624E+03 11600   0.112E+02
DAV:   4    -0.162500727140E+03   -0.12767E+02   -0.11830E+02 11816   0.279E+01
DAV:   5    -0.162779392995E+03   -0.27867E+00   -0.27811E+00 12240   0.378E+00    0.186E+01
RMM:   6    -0.198012925619E+03   -0.35234E+02   -0.75623E+01 10288   0.181E+01    0.350E+01
RMM:   7    -0.181227452904E+03    0.16785E+02   -0.22393E+01 10021   0.112E+01    0.328E+01
RMM:   8    -0.160144064973E+03    0.21083E+02   -0.14601E+01 10029   0.999E+00    0.198E+01
RMM:   9    -0.154510724404E+03    0.56333E+01   -0.55198E+00 10028   0.633E+00    0.622E+00
RMM:  10    -0.154427883675E+03    0.82841E-01   -0.29729E+00 10027   0.454E+00    0.643E+00
RMM:  11    -0.154003983080E+03    0.42390E+00   -0.92959E-01 10068   0.266E+00    0.456E+00
RMM:  12    -0.153870258923E+03    0.13372E+00   -0.44820E-01 10025   0.183E+00    0.349E+00
RMM:  13    -0.153852228237E+03    0.18031E-01   -0.20451E-01 10026   0.126E+00    0.362E+00
RMM:  14    -0.153719763265E+03    0.13246E+00   -0.10694E-01 10031   0.915E-01    0.157E+00
RMM:  15    -0.153711898046E+03    0.78652E-02   -0.65532E-02 10030   0.661E-01    0.156E+00
RMM:  16    -0.153690422369E+03    0.21476E-01   -0.26333E-02 10032   0.444E-01    0.743E-01
RMM:  17    -0.153687488753E+03    0.29336E-02   -0.94239E-03 10028   0.271E-01    0.906E-01
RMM:  18    -0.153680706938E+03    0.67818E-02   -0.34356E-03 10029   0.154E-01    0.390E-01
RMM:  19    -0.153678744302E+03    0.19626E-02   -0.27207E-03 10024   0.139E-01    0.409E-01
RMM:  20    -0.153676104432E+03    0.26399E-02   -0.26564E-03 10027   0.144E-01    0.412E-01
RMM:  21    -0.153670938228E+03    0.51662E-02   -0.26985E-03 10028   0.108E-01    0.413E-01
RMM:  22    -0.153667929880E+03    0.30083E-02   -0.11856E-03 10311   0.683E-02    0.159E-01
RMM:  23    -0.153665610817E+03    0.23191E-02   -0.10147E-03 10031   0.653E-02    0.124E-01
RMM:  24    -0.153663946010E+03    0.16648E-02   -0.78209E-04 10061   0.488E-02    0.102E-01
RMM:  25    -0.153663685830E+03    0.26018E-03   -0.44324E-04 10047   0.392E-02    0.113E-01
RMM:  26    -0.153665341787E+03   -0.16560E-02   -0.39360E-04  9981   0.448E-02    0.867E-02
RMM:  27    -0.153668050812E+03   -0.27090E-02   -0.32043E-04  9971   0.359E-02    0.338E-01
RMM:  28    -0.153667913349E+03    0.13746E-03   -0.18565E-04  9874   0.260E-02    0.897E-02
RMM:  29    -0.153669500354E+03   -0.15870E-02   -0.31667E-04  8728   0.248E-02    0.168E-01
RMM:  30    -0.153670443697E+03   -0.94334E-03   -0.19203E-04  8428   0.178E-02    0.269E-01
RMM:  31    -0.153670856860E+03   -0.41316E-03   -0.76355E-05  7627   0.146E-02    0.285E-01
RMM:  32    -0.153670584901E+03    0.27196E-03   -0.12151E-05  5839   0.759E-03    0.208E-01
RMM:  33    -0.153670353469E+03    0.23143E-03   -0.19885E-05  6031   0.847E-03    0.104E-01
RMM:  34    -0.153670370490E+03   -0.17021E-04   -0.17731E-05  6070   0.927E-03    0.779E-02
RMM:  35    -0.153670369990E+03    0.49917E-06   -0.33886E-05  6892   0.105E-02
   1 F= -.15367037E+03 E0= -.15366731E+03  d E =-.153670E+03
quench:  g(F)=  0.000E+00 g(S)=  0.000E+00 dE (1.order)= 0.000E+00
 bond charge predicted
       N       E                     dE             d eps       ncg     rms          rms(c)
DAV:   1    -0.157388848249E+03   -0.37185E+01   -0.24907E+02 10104   0.272E+01    0.507E+00
RMM:   2    -0.170637255605E+03   -0.13248E+02   -0.59368E+00 10034   0.505E+00    0.361E+01
RMM:   3    -0.158157766362E+03    0.12479E+02   -0.37240E+00 10026   0.424E+00    0.585E+00
RMM:   4    -0.158896383258E+03   -0.73862E+00   -0.89973E-01 10052   0.229E+00    0.102E+01
RMM:   5    -0.157706457400E+03    0.11899E+01   -0.35259E-01 10022   0.150E+00    0.322E+00
RMM:   6    -0.157622720911E+03    0.83736E-01   -0.10866E-01 10021   0.921E-01    0.193E+00
RMM:   7    -0.157596815451E+03    0.25905E-01   -0.44633E-02 10025   0.536E-01    0.149E+00
RMM:   8    -0.157573457610E+03    0.23358E-01   -0.27608E-02 10040   0.403E-01    0.958E-01
RMM:   9    -0.157565928119E+03    0.75295E-02   -0.17853E-02 10024   0.311E-01    0.849E-01
RMM:  10    -0.157561188917E+03    0.47392E-02   -0.12143E-02 10186   0.243E-01    0.666E-01
RMM:  11    -0.157557267346E+03    0.39216E-02   -0.45164E-03 10079   0.156E-01    0.363E-01
RMM:  12    -0.157556182221E+03    0.10851E-02   -0.15291E-03 10036   0.992E-02    0.284E-01
RMM:  13    -0.157554889291E+03    0.12929E-02   -0.94732E-04 10021   0.739E-02    0.172E-01
RMM:  14    -0.157554621386E+03    0.26790E-03   -0.56304E-04 10020   0.606E-02    0.139E-01
RMM:  15    -0.157554459380E+03    0.16201E-03   -0.24919E-04 10001   0.379E-02    0.837E-02
RMM:  16    -0.157554405042E+03    0.54338E-04   -0.70999E-05  8635   0.212E-02    0.457E-02
RMM:  17    -0.157554431844E+03   -0.26801E-04   -0.42256E-05  7086   0.156E-02    0.398E-02
RMM:  18    -0.157554480098E+03   -0.48254E-04   -0.52798E-05  7429   0.166E-02    0.220E-02
RMM:  19    -0.157554507672E+03   -0.27575E-04   -0.16248E-05  5806   0.103E-02    0.205E-02
RMM:  20    -0.157554537192E+03   -0.29520E-04   -0.86597E-06  5616   0.842E-03    0.152E-02
RMM:  21    -0.157554559918E+03   -0.22726E-04   -0.57184E-06  5589   0.647E-03    0.121E-02
RMM:  22    -0.157554589601E+03   -0.29683E-04   -0.63965E-06  5635   0.507E-03    0.984E-03
RMM:  23    -0.157554601425E+03   -0.11824E-04   -0.32104E-06  5080   0.375E-03    0.908E-03
RMM:  24    -0.157554615727E+03   -0.14302E-04   -0.43457E-06  4865   0.375E-03    0.102E-02
RMM:  25    -0.157554619794E+03   -0.40675E-05   -0.27760E-06  4552   0.311E-03
   2 F= -.15755462E+03 E0= -.15755197E+03  d E =-.388425E+01
quench:  g(F)=  0.000E+00 g(S)=  0.000E+00 dE (1.order)= 0.000E+00
 bond charge predicted
       N       E                     dE             d eps       ncg     rms          rms(c)
DAV:   1    -0.157749124323E+03   -0.19451E+00   -0.25081E+02 10024   0.307E+01    0.401E+00
RMM:   2    -0.162951755355E+03   -0.52026E+01   -0.84672E+00 11309   0.639E+00    0.330E+01
RMM:   3    -0.158813902317E+03    0.41379E+01   -0.22568E+00 10458   0.341E+00    0.394E+00
RMM:   4    -0.159877715229E+03   -0.10638E+01   -0.59280E-01 10076   0.183E+00    0.106E+01
RMM:   5    -0.158630590566E+03    0.12471E+01   -0.22949E-01 10036   0.116E+00    0.286E+00
RMM:   6    -0.158571833253E+03    0.58757E-01   -0.63272E-02 10025   0.686E-01    0.226E+00
RMM:   7    -0.158538879587E+03    0.32954E-01   -0.59200E-02 10026   0.584E-01    0.210E+00
RMM:   8    -0.158500030432E+03    0.38849E-01   -0.53009E-02 10100   0.486E-01    0.136E+00
RMM:   9    -0.158488838986E+03    0.11191E-01   -0.27874E-02 10586   0.351E-01    0.104E+00
RMM:  10    -0.158481672885E+03    0.71661E-02   -0.78275E-03 10539   0.192E-01    0.813E-01
RMM:  11    -0.158479313378E+03    0.23595E-02   -0.18836E-03 10061   0.105E-01    0.722E-01
RMM:  12    -0.158476668230E+03    0.26451E-02   -0.11902E-03 10035   0.836E-02    0.645E-01
RMM:  13    -0.158472794310E+03    0.38739E-02   -0.12532E-03 10025   0.786E-02    0.426E-01
RMM:  14    -0.158471650822E+03    0.11435E-02   -0.56374E-04 10055   0.505E-02    0.359E-01
RMM:  15    -0.158470181863E+03    0.14690E-02   -0.61448E-04  9999   0.475E-02    0.214E-01
RMM:  16    -0.158469729578E+03    0.45229E-03   -0.30325E-04  9955   0.357E-02    0.142E-01
RMM:  17    -0.158469445185E+03    0.28439E-03   -0.47578E-04  9934   0.409E-02    0.712E-02
RMM:  18    -0.158469391820E+03    0.53365E-04   -0.25268E-04 10111   0.302E-02    0.194E-02
RMM:  19    -0.158469401215E+03   -0.93950E-05   -0.45012E-05  7075   0.151E-02
   3 F= -.15846940E+03 E0= -.15846700E+03  d E =-.914781E+00
quench:  g(F)=  0.000E+00 g(S)=  0.000E+00 dE (1.order)= 0.000E+00
 bond charge predicted
       N       E                     dE             d eps       ncg     rms          rms(c)
DAV:   1    -0.158270073369E+03    0.19932E+00   -0.12462E+02 10080   0.234E+01    0.219E+00
RMM:   2    -0.159446553329E+03   -0.11765E+01   -0.46223E+00 10067   0.559E+00    0.133E+01
RMM:   3    -0.158861625851E+03    0.58493E+00   -0.11462E+00 13395   0.208E+00    0.400E+00
RMM:   4    -0.158991993511E+03   -0.13037E+00   -0.22460E-01 10036   0.124E+00    0.553E+00
RMM:   5    -0.158686328355E+03    0.30567E+00   -0.87643E-02 10034   0.786E-01    0.181E+00
RMM:   6    -0.158658427297E+03    0.27901E-01   -0.24239E-02 10031   0.430E-01    0.127E+00
RMM:   7    -0.158646788517E+03    0.11639E-01   -0.15195E-02 10136   0.277E-01    0.102E+00
RMM:   8    -0.158633725371E+03    0.13063E-01   -0.21843E-02 10473   0.300E-01    0.529E-01
RMM:   9    -0.158631218526E+03    0.25068E-02   -0.17015E-02 10613   0.282E-01    0.408E-01
RMM:  10    -0.158630112305E+03    0.11062E-02   -0.11349E-02 12712   0.202E-01    0.251E-01
RMM:  11    -0.158629972218E+03    0.14009E-03   -0.16177E-03 10455   0.998E-02    0.218E-01
RMM:  12    -0.158629746890E+03    0.22533E-03   -0.71265E-04 10031   0.732E-02    0.159E-01
RMM:  13    -0.158629477823E+03    0.26907E-03   -0.24581E-04 10018   0.442E-02    0.715E-02
RMM:  14    -0.158629430747E+03    0.47077E-04   -0.74433E-05  9448   0.217E-02    0.553E-02
RMM:  15    -0.158629395366E+03    0.35380E-04   -0.11091E-04  9777   0.216E-02    0.369E-02
RMM:  16    -0.158629394577E+03    0.78920E-06   -0.56498E-05  8047   0.168E-02
   4 F= -.15862939E+03 E0= -.15862694E+03  d E =-.159993E+00
quench:  g(F)=  0.000E+00 g(S)=  0.000E+00 dE (1.order)= 0.000E+00
 bond charge predicted
       N       E                     dE             d eps       ncg     rms          rms(c)
DAV:   1    -0.158628659998E+03    0.73537E-03   -0.84680E+00 10320   0.606E+00    0.517E-01
RMM:   2    -0.158697249640E+03   -0.68590E-01   -0.27585E-01 10042   0.113E+00    0.246E+00
RMM:   3    -0.158674488460E+03    0.22761E-01   -0.47063E-02 11489   0.454E-01    0.160E+00
RMM:   4    -0.158657809562E+03    0.16679E-01   -0.13926E-02 10041   0.298E-01    0.843E-01
RMM:   5    -0.158650103392E+03    0.77062E-02   -0.28823E-03 10030   0.148E-01    0.283E-01
RMM:   6    -0.158649324202E+03    0.77919E-03   -0.53115E-04 10031   0.625E-02    0.215E-01
RMM:   7    -0.158648848241E+03    0.47596E-03   -0.10068E-03 10192   0.676E-02    0.185E-01
RMM:   8    -0.158648331464E+03    0.51678E-03   -0.24592E-03 10535   0.930E-02    0.998E-02
RMM:   9    -0.158648338118E+03   -0.66536E-05   -0.94639E-04 12842   0.608E-02    0.833E-02
RMM:  10    -0.158648309761E+03    0.28356E-04   -0.16763E-04 10630   0.314E-02    0.562E-02
RMM:  11    -0.158648279698E+03    0.30063E-04   -0.31140E-05  6306   0.159E-02    0.376E-02
RMM:  12    -0.158648258998E+03    0.20700E-04   -0.26727E-05  5747   0.145E-02    0.295E-02
RMM:  13    -0.158648246558E+03    0.12440E-04   -0.32318E-05  6104   0.145E-02    0.161E-02
RMM:  14    -0.158648245309E+03    0.12487E-05   -0.19814E-05  5360   0.125E-02
   5 F= -.15864825E+03 E0= -.15864579E+03  d E =-.188507E-01
quench:  g(F)=  0.000E+00 g(S)=  0.000E+00 dE (1.order)= 0.000E+00
 bond charge predicted
       N       E                     dE             d eps       ncg     rms          rms(c)
DAV:   1    -0.158650912851E+03   -0.26663E-02   -0.34510E+00 10080   0.385E+00    0.282E-01
RMM:   2    -0.158660033324E+03   -0.91205E-02   -0.10458E-01 10040   0.696E-01    0.299E-01
RMM:   3    -0.158666002013E+03   -0.59687E-02   -0.16543E-02 13495   0.258E-01    0.801E-01
RMM:   4    -0.158663679078E+03    0.23229E-02   -0.20737E-03 10067   0.107E-01    0.636E-01
RMM:   5    -0.158660000147E+03    0.36789E-02   -0.95355E-04 10023   0.843E-02    0.171E-01
RMM:   6    -0.158659725448E+03    0.27470E-03   -0.21281E-04 10002   0.376E-02    0.140E-01
RMM:   7    -0.158659433333E+03    0.29212E-03   -0.43372E-04 10227   0.394E-02    0.104E-01
RMM:   8    -0.158659275971E+03    0.15736E-03   -0.92134E-04 10730   0.567E-02    0.796E-02
RMM:   9    -0.158659303660E+03   -0.27689E-04   -0.67677E-04 12448   0.491E-02    0.736E-02
RMM:  10    -0.158659284825E+03    0.18835E-04   -0.15089E-04 10506   0.276E-02    0.461E-02
RMM:  11    -0.158659261716E+03    0.23109E-04   -0.13299E-05  5453   0.105E-02    0.383E-02
RMM:  12    -0.158659224198E+03    0.37517E-04   -0.74772E-05  8987   0.177E-02    0.180E-02
RMM:  13    -0.158659220214E+03    0.39841E-05   -0.22631E-05  5370   0.111E-02
   6 F= -.15865922E+03 E0= -.15865675E+03  d E =-.109749E-01
quench:  g(F)=  0.000E+00 g(S)=  0.000E+00 dE (1.order)= 0.000E+00
 bond charge predicted
       N       E                     dE             d eps       ncg     rms          rms(c)
DAV:   1    -0.158661214664E+03   -0.19905E-02   -0.39404E+00 10016   0.407E+00    0.296E-01
RMM:   2    -0.158674483388E+03   -0.13269E-01   -0.11805E-01 10043   0.727E-01    0.647E-01
RMM:   3    -0.158682441519E+03   -0.79581E-02   -0.18492E-02 13640   0.263E-01    0.110E+00
RMM:   4    -0.158674126134E+03    0.83154E-02   -0.36122E-03 10040   0.157E-01    0.499E-01
RMM:   5    -0.158671375646E+03    0.27505E-02   -0.11407E-03 10024   0.953E-02    0.173E-01
RMM:   6    -0.158671143155E+03    0.23249E-03   -0.23569E-04 10013   0.371E-02    0.142E-01
RMM:   7    -0.158670806767E+03    0.33639E-03   -0.99252E-04 10288   0.594E-02    0.114E-01
RMM:   8    -0.158670681288E+03    0.12548E-03   -0.95867E-04 11545   0.552E-02    0.719E-02
RMM:   9    -0.158670711276E+03   -0.29988E-04   -0.48352E-04 12386   0.425E-02    0.595E-02
RMM:  10    -0.158670688647E+03    0.22628E-04   -0.50085E-05  7878   0.185E-02    0.448E-02
RMM:  11    -0.158670656269E+03    0.32379E-04   -0.19025E-05  5322   0.117E-02    0.337E-02
RMM:  12    -0.158670636095E+03    0.20173E-04   -0.35808E-05  6245   0.138E-02    0.196E-02
RMM:  13    -0.158670630584E+03    0.55108E-05   -0.29470E-05  5664   0.129E-02
   7 F= -.15867063E+03 E0= -.15866816E+03  d E =-.114104E-01
quench:  g(F)=  0.000E+00 g(S)=  0.000E+00 dE (1.order)= 0.000E+00
 bond charge predicted
       N       E                     dE             d eps       ncg     rms          rms(c)
DAV:   1    -0.158670793695E+03   -0.15760E-03   -0.46899E+00 10000   0.446E+00    0.317E-01
RMM:   2    -0.158682337104E+03   -0.11543E-01   -0.13984E-01 10045   0.801E-01    0.215E-01
RMM:   3    -0.158699219910E+03   -0.16883E-01   -0.20028E-02 12915   0.299E-01    0.134E+00
RMM:   4    -0.158684411818E+03    0.14808E-01   -0.29991E-03 10076   0.130E-01    0.334E-01
RMM:   5    -0.158683003175E+03    0.14086E-02   -0.87464E-04 10020   0.836E-02    0.179E-01
RMM:   6    -0.158682734831E+03    0.26834E-03   -0.26775E-04 10093   0.372E-02    0.160E-01
RMM:   7    -0.158682323215E+03    0.41162E-03   -0.63562E-04 10279   0.464E-02    0.101E-01
RMM:   8    -0.158682234364E+03    0.88851E-04   -0.10780E-03 11204   0.615E-02    0.107E-01
RMM:   9    -0.158682269972E+03   -0.35608E-04   -0.10322E-03 11728   0.607E-02    0.821E-02
RMM:  10    -0.158682252335E+03    0.17638E-04   -0.18184E-04 11244   0.293E-02    0.662E-02
RMM:  11    -0.158682203934E+03    0.48401E-04   -0.18143E-05  5547   0.117E-02    0.548E-02
RMM:  12    -0.158682139483E+03    0.64452E-04   -0.11705E-04  9565   0.212E-02    0.291E-02
RMM:  13    -0.158682126206E+03    0.13277E-04   -0.65057E-05  8270   0.159E-02    0.138E-02
RMM:  14    -0.158682125373E+03    0.83335E-06   -0.52690E-05  7664   0.147E-02
   8 F= -.15868213E+03 E0= -.15867963E+03  d E =-.114948E-01
quench:  g(F)=  0.000E+00 g(S)=  0.000E+00 dE (1.order)= 0.000E+00
 bond charge predicted
       N       E                     dE             d eps       ncg     rms          rms(c)
DAV:   1    -0.158679223965E+03    0.29022E-02   -0.41247E+00 10016   0.418E+00    0.318E-01
RMM:   2    -0.158703357140E+03   -0.24133E-01   -0.12700E-01 10044   0.757E-01    0.126E+00
RMM:   3    -0.158697679712E+03    0.56774E-02   -0.19992E-02 13270   0.274E-01    0.907E-01
RMM:   4    -0.158692866862E+03    0.48129E-02   -0.46276E-03 10038   0.181E-01    0.540E-01
RMM:   5    -0.158689710539E+03    0.31563E-02   -0.11129E-03 10026   0.969E-02    0.171E-01
RMM:   6    -0.158689460998E+03    0.24954E-03   -0.23783E-04 10026   0.378E-02    0.141E-01
RMM:   7    -0.158689189719E+03    0.27128E-03   -0.85219E-04 10369   0.573E-02    0.126E-01
RMM:   8    -0.158689018475E+03    0.17124E-03   -0.10821E-03 10860   0.600E-02    0.806E-02
RMM:   9    -0.158689009692E+03    0.87826E-05   -0.39357E-04 12574   0.393E-02    0.548E-02
RMM:  10    -0.158688990026E+03    0.19666E-04   -0.47746E-05  7581   0.178E-02    0.356E-02
RMM:  11    -0.158688976496E+03    0.13531E-04   -0.10375E-05  5366   0.105E-02    0.295E-02
RMM:  12    -0.158688958482E+03    0.18014E-04   -0.23825E-05  5530   0.114E-02    0.173E-02
RMM:  13    -0.158688955260E+03    0.32218E-05   -0.13549E-05  5219   0.994E-03
   9 F= -.15868896E+03 E0= -.15868645E+03  d E =-.682989E-02
quench:  g(F)=  0.000E+00 g(S)=  0.000E+00 dE (1.order)= 0.000E+00
 bond charge predicted
       N       E                     dE             d eps       ncg     rms          rms(c)
DAV:   1    -0.158690281844E+03   -0.13234E-02   -0.11858E+00 10048   0.226E+00    0.185E-01
RMM:   2    -0.158695157086E+03   -0.48752E-02   -0.37538E-02 10038   0.426E-01    0.445E-01
RMM:   3    -0.158698255725E+03   -0.30986E-02   -0.69510E-03 13078   0.159E-01    0.719E-01
RMM:   4    -0.158694399463E+03    0.38563E-02   -0.13762E-03 10045   0.931E-02    0.310E-01
RMM:   5    -0.158693338637E+03    0.10608E-02   -0.40276E-04 10020   0.545E-02    0.981E-02
RMM:   6    -0.158693250619E+03    0.88017E-04   -0.75921E-05  9074   0.219E-02    0.805E-02
RMM:   7    -0.158693185322E+03    0.65298E-04   -0.12652E-04 10111   0.236E-02    0.713E-02
RMM:   8    -0.158693106144E+03    0.79178E-04   -0.37493E-04 10323   0.362E-02    0.444E-02
RMM:   9    -0.158693110304E+03   -0.41600E-05   -0.18309E-04 11403   0.265E-02    0.389E-02
RMM:  10    -0.158693098826E+03    0.11478E-04   -0.29218E-05  6041   0.136E-02    0.200E-02
RMM:  11    -0.158693095306E+03    0.35194E-05   -0.95745E-06  5291   0.111E-02
  10 F= -.15869310E+03 E0= -.15869057E+03  d E =-.414005E-02
quench:  g(F)=  0.000E+00 g(S)=  0.000E+00 dE (1.order)= 0.000E+00
 bond charge predicted
       N       E                     dE             d eps       ncg     rms          rms(c)
DAV:   1    -0.158694044053E+03   -0.94523E-03   -0.28320E-01 10328   0.110E+00    0.978E-02
RMM:   2    -0.158697121052E+03   -0.30770E-02   -0.95685E-03 10047   0.206E-01    0.508E-01
RMM:   3    -0.158695436741E+03    0.16843E-02   -0.15104E-03 11380   0.754E-02    0.256E-01
RMM:   4    -0.158694952933E+03    0.48381E-03   -0.48716E-04 10005   0.575E-02    0.137E-01
RMM:   5    -0.158694747687E+03    0.20525E-03   -0.87617E-05  9745   0.272E-02    0.455E-02
RMM:   6    -0.158694726072E+03    0.21616E-04   -0.13495E-05  5513   0.110E-02    0.346E-02
RMM:   7    -0.158694712076E+03    0.13996E-04   -0.33590E-05  6286   0.143E-02    0.332E-02
RMM:   8    -0.158694696265E+03    0.15811E-04   -0.10161E-04  9739   0.212E-02    0.159E-02
RMM:   9    -0.158694695764E+03    0.50046E-06   -0.23716E-05  5378   0.121E-02
  11 F= -.15869470E+03 E0= -.15869217E+03  d E =-.160046E-02
quench:  g(F)=  0.000E+00 g(S)=  0.000E+00 dE (1.order)= 0.000E+00
 bond charge predicted
       N       E                     dE             d eps       ncg     rms          rms(c)
DAV:   1    -0.158695636255E+03   -0.93999E-03   -0.40397E-01 10160   0.131E+00    0.105E-01
RMM:   2    -0.158697893653E+03   -0.22574E-02   -0.12822E-02 10046   0.237E-01    0.372E-01
RMM:   3    -0.158697366711E+03    0.52694E-03   -0.19449E-03 13564   0.820E-02    0.268E-01
RMM:   4    -0.158696959261E+03    0.40745E-03   -0.44720E-04 10004   0.574E-02    0.166E-01
RMM:   5    -0.158696661794E+03    0.29747E-03   -0.12389E-04  9891   0.331E-02    0.512E-02
RMM:   6    -0.158696637364E+03    0.24430E-04   -0.19684E-05  5667   0.119E-02    0.424E-02
RMM:   7    -0.158696610060E+03    0.27304E-04   -0.98861E-05  9552   0.210E-02    0.367E-02
RMM:   8    -0.158696597829E+03    0.12231E-04   -0.93583E-05  9663   0.191E-02    0.244E-02
RMM:   9    -0.158696596819E+03    0.10103E-05   -0.37526E-05  6567   0.137E-02
  12 F= -.15869660E+03 E0= -.15869407E+03  d E =-.190105E-02
quench:  g(F)=  0.000E+00 g(S)=  0.000E+00 dE (1.order)= 0.000E+00
 bond charge predicted
       N       E                     dE             d eps       ncg     rms          rms(c)
DAV:   1    -0.158697308717E+03   -0.71089E-03   -0.60790E-01 10032   0.161E+00    0.131E-01
RMM:   2    -0.158700984024E+03   -0.36753E-02   -0.19551E-02 10049   0.292E-01    0.488E-01
RMM:   3    -0.158699772993E+03    0.12110E-02   -0.29730E-03 13561   0.102E-01    0.301E-01
RMM:   4    -0.158699272977E+03    0.50002E-03   -0.63248E-04 10018   0.687E-02    0.197E-01
RMM:   5    -0.158698859556E+03    0.41342E-03   -0.18207E-04  9970   0.399E-02    0.610E-02
RMM:   6    -0.158698824621E+03    0.34935E-04   -0.31588E-05  6425   0.145E-02    0.509E-02
RMM:   7    -0.158698785062E+03    0.39559E-04   -0.14246E-04 10316   0.249E-02    0.432E-02
RMM:   8    -0.158698768671E+03    0.16391E-04   -0.12200E-04 10061   0.214E-02    0.296E-02
RMM:   9    -0.158698767208E+03    0.14627E-05   -0.52325E-05  8009   0.153E-02
  13 F= -.15869877E+03 E0= -.15869623E+03  d E =-.217039E-02
quench:  g(F)=  0.000E+00 g(S)=  0.000E+00 dE (1.order)= 0.000E+00
 bond charge predicted
       N       E                     dE             d eps       ncg     rms          rms(c)
DAV:   1    -0.158699487145E+03   -0.71847E-03   -0.82299E-01 10048   0.187E+00    0.149E-01
RMM:   2    -0.158703097943E+03   -0.36108E-02   -0.26022E-02 10050   0.337E-01    0.420E-01
RMM:   3    -0.158703130216E+03   -0.32273E-04   -0.39273E-03 13790   0.118E-01    0.402E-01
RMM:   4    -0.158701915113E+03    0.12151E-02   -0.62773E-04 10022   0.689E-02    0.169E-01
RMM:   5    -0.158701602710E+03    0.31240E-03   -0.17104E-04  9983   0.386E-02    0.707E-02
RMM:   6    -0.158701558854E+03    0.43856E-04   -0.38503E-05  6935   0.151E-02    0.597E-02
RMM:   7    -0.158701501191E+03    0.57663E-04   -0.20437E-04 10507   0.290E-02    0.501E-02
RMM:   8    -0.158701484181E+03    0.17011E-04   -0.15568E-04 10789   0.236E-02    0.369E-02
RMM:   9    -0.158701483168E+03    0.10126E-05   -0.75663E-05  9408   0.177E-02
  14 F= -.15870148E+03 E0= -.15869893E+03  d E =-.271596E-02
quench:  g(F)=  0.000E+00 g(S)=  0.000E+00 dE (1.order)= 0.000E+00
 bond charge predicted
       N       E                     dE             d eps       ncg     rms          rms(c)
DAV:   1    -0.158701589363E+03   -0.10518E-03   -0.10167E+00 10016   0.208E+00    0.170E-01
RMM:   2    -0.158708115439E+03   -0.65261E-02   -0.32829E-02 10050   0.376E-01    0.663E-01
RMM:   3    -0.158705522801E+03    0.25926E-02   -0.49384E-03 13402   0.132E-01    0.362E-01
RMM:   4    -0.158704826110E+03    0.69669E-03   -0.10021E-03 10027   0.866E-02    0.249E-01
RMM:   5    -0.158704178059E+03    0.64805E-03   -0.29470E-04 10008   0.509E-02    0.777E-02
RMM:   6    -0.158704120132E+03    0.57928E-04   -0.58358E-05  8269   0.186E-02    0.637E-02
RMM:   7    -0.158704055470E+03    0.64662E-04   -0.22717E-04 10363   0.297E-02    0.547E-02
RMM:   8    -0.158704034080E+03    0.21390E-04   -0.18322E-04 11189   0.251E-02    0.405E-02
RMM:   9    -0.158704029272E+03    0.48082E-05   -0.71237E-05  9319   0.177E-02
  15 F= -.15870403E+03 E0= -.15870147E+03  d E =-.254610E-02
quench:  g(F)=  0.000E+00 g(S)=  0.000E+00 dE (1.order)= 0.000E+00
 bond charge predicted
       N       E                     dE             d eps       ncg     rms          rms(c)
DAV:   1    -0.158703722178E+03    0.31190E-03   -0.11291E+00 10032   0.218E+00    0.175E-01
RMM:   2    -0.158711476462E+03   -0.77543E-02   -0.36517E-02 10051   0.395E-01    0.730E-01
RMM:   3    -0.158707924863E+03    0.35516E-02   -0.54397E-03 13241   0.139E-01    0.353E-01
RMM:   4    -0.158707003812E+03    0.92105E-03   -0.95285E-04 10027   0.852E-02    0.195E-01
RMM:   5    -0.158706610178E+03    0.39363E-03   -0.23321E-04 10014   0.455E-02    0.835E-02
RMM:   6    -0.158706550239E+03    0.59939E-04   -0.49151E-05  7732   0.173E-02    0.685E-02
RMM:   7    -0.158706470605E+03    0.79634E-04   -0.23916E-04 10423   0.306E-02    0.553E-02
RMM:   8    -0.158706446149E+03    0.24456E-04   -0.20660E-04 11444   0.264E-02    0.408E-02
RMM:   9    -0.158706442793E+03    0.33559E-05   -0.81606E-05  9593   0.188E-02
  16 F= -.15870644E+03 E0= -.15870387E+03  d E =-.241352E-02
quench:  g(F)=  0.000E+00 g(S)=  0.000E+00 dE (1.order)= 0.000E+00
 bond charge predicted
       N       E                     dE             d eps       ncg     rms          rms(c)
DAV:   1    -0.158705952579E+03    0.49357E-03   -0.76891E-01 10176   0.182E+00    0.150E-01
RMM:   2    -0.158716740027E+03   -0.10787E-01   -0.26810E-02 10050   0.343E-01    0.967E-01
RMM:   3    -0.158708730520E+03    0.80095E-02   -0.39577E-03 11515   0.125E-01    0.232E-01
RMM:   4    -0.158708293883E+03    0.43664E-03   -0.92521E-04 10025   0.814E-02    0.182E-01
RMM:   5    -0.158707936453E+03    0.35743E-03   -0.19457E-04  9994   0.399E-02    0.758E-02
RMM:   6    -0.158707885960E+03    0.50494E-04   -0.32821E-05  6593   0.162E-02    0.590E-02
RMM:   7    -0.158707834178E+03    0.51781E-04   -0.93414E-05  9624   0.214E-02    0.472E-02
RMM:   8    -0.158707801108E+03    0.33070E-04   -0.16832E-04 10842   0.246E-02    0.346E-02
RMM:   9    -0.158707796522E+03    0.45858E-05   -0.80092E-05  9679   0.186E-02
  17 F= -.15870780E+03 E0= -.15870521E+03  d E =-.135373E-02
quench:  g(F)=  0.000E+00 g(S)=  0.000E+00 dE (1.order)= 0.000E+00
 bond charge predicted
       N       E                     dE             d eps       ncg     rms          rms(c)
DAV:   1    -0.158707519251E+03    0.28186E-03   -0.26667E-01 10048   0.108E+00    0.933E-02
RMM:   2    -0.158708696030E+03   -0.11768E-02   -0.88210E-03 10049   0.206E-01    0.231E-01
RMM:   3    -0.158709246188E+03   -0.55016E-03   -0.14467E-03 11984   0.761E-02    0.339E-01
RMM:   4    -0.158708528452E+03    0.71774E-03   -0.38896E-04 10025   0.469E-02    0.175E-01
RMM:   5    -0.158708214924E+03    0.31353E-03   -0.11064E-04  9823   0.284E-02    0.533E-02
RMM:   6    -0.158708179101E+03    0.35823E-04   -0.19412E-05  5595   0.134E-02    0.374E-02
RMM:   7    -0.158708165093E+03    0.14008E-04   -0.16475E-05  5203   0.111E-02    0.317E-02
RMM:   8    -0.158708147482E+03    0.17611E-04   -0.87462E-05  9574   0.201E-02    0.246E-02
RMM:   9    -0.158708145318E+03    0.21642E-05   -0.37717E-05  6514   0.138E-02
  18 F= -.15870815E+03 E0= -.15870555E+03  d E =-.348796E-03
quench:  g(F)=  0.000E+00 g(S)=  0.000E+00 dE (1.order)= 0.000E+00
 bond charge predicted
       N       E                     dE             d eps       ncg     rms          rms(c)
DAV:   1    -0.158708209715E+03   -0.62232E-04   -0.51905E-03 10368   0.152E-01    0.194E-02
RMM:   2    -0.158708545308E+03   -0.33559E-03   -0.23611E-04  9974   0.343E-02    0.186E-01
RMM:   3    -0.158708239439E+03    0.30587E-03   -0.51205E-05  8214   0.162E-02    0.324E-02
RMM:   4    -0.158708222530E+03    0.16909E-04   -0.18999E-05  5705   0.143E-02    0.193E-02
RMM:   5    -0.158708219357E+03    0.31725E-05   -0.61791E-06  5263   0.965E-03
  19 F= -.15870822E+03 E0= -.15870562E+03  d E =-.740395E-04
quench:  g(F)=  0.000E+00 g(S)=  0.000E+00 dE (1.order)= 0.000E+00
 bond charge predicted
       N       E                     dE             d eps       ncg     rms          rms(c)
DAV:   1    -0.158708463465E+03   -0.24094E-03   -0.12728E-02 10288   0.235E-01    0.224E-02
RMM:   2    -0.158708957735E+03   -0.49427E-03   -0.48798E-04 10006   0.482E-02    0.223E-01
RMM:   3    -0.158708533992E+03    0.42374E-03   -0.93658E-05  9648   0.202E-02    0.517E-02
RMM:   4    -0.158708497839E+03    0.36153E-04   -0.24726E-05  6171   0.148E-02    0.211E-02
RMM:   5    -0.158708492398E+03    0.54414E-05   -0.55295E-06  5308   0.941E-03
  20 F= -.15870849E+03 E0= -.15870589E+03  d E =-.273040E-03
quench:  g(F)=  0.000E+00 g(S)=  0.000E+00 dE (1.order)= 0.000E+00
 reached required accuracy - stopping structural energy minimisation
 writing wavefunctions
