 running on   20 total cores
 distrk:  each k-point on   20 cores,    1 groups
 distr:  one band on    1 cores,   20 groups
 using from now: INCAR     
 vasp.5.4.1 05Feb16 (build Sep 02 2018 21:45:25) complex                        
  
 POSCAR found type information on POSCAR  Cu H 
 POSCAR found :  2 types and       9 ions
 scaLAPACK will be used

 ----------------------------------------------------------------------------- 
|                                                                             |
|           W    W    AA    RRRRR   N    N  II  N    N   GGGG   !!!           |
|           W    W   A  A   R    R  NN   N  II  NN   N  G    G  !!!           |
|           W    W  A    A  R    R  N N  N  II  N N  N  G       !!!           |
|           W WW W  AAAAAA  RRRRR   N  N N  II  N  N N  G  GGG   !            |
|           WW  WW  A    A  R   R   N   NN  II  N   NN  G    G                |
|           W    W  A    A  R    R  N    N  II  N    N   GGGG   !!!           |
|                                                                             |
|      For optimal performance we recommend to set                            |
|        NCORE= 4 - approx SQRT( number of cores)                             |
|      NCORE specifies how many cores store one orbital (NPAR=cpu/NCORE).     |
|      This setting can  greatly improve the performance of VASP for DFT.     |
|      The default, NPAR=number of cores might be grossly inefficient         |
|      on modern multi-core architectures or massively parallel machines.     |
|      Do your own testing !!!!                                               |
|      Unfortunately you need to use the default for GW and RPA calculations. |
|      (for HF NCORE is supported but not extensively tested yet)             |
|                                                                             |
 ----------------------------------------------------------------------------- 

 LDA part: xc-table for Ceperly-Alder, standard interpolation
 POSCAR, INCAR and KPOINTS ok, starting setup
 WARNING: small aliasing (wrap around) errors must be expected
 FFT: planning ...
 WAVECAR not read
 entering main loop
       N       E                     dE             d eps       ncg     rms          rms(c)
DAV:   1     0.522052986183E+03    0.52205E+03   -0.39576E+04  3360   0.152E+03
DAV:   2    -0.108246059990E+02   -0.53288E+03   -0.51376E+03  3380   0.316E+02
DAV:   3    -0.368961968129E+02   -0.26072E+02   -0.25875E+02  4340   0.972E+01
DAV:   4    -0.371522699433E+02   -0.25607E+00   -0.25604E+00  3520   0.104E+01
DAV:   5    -0.371544534807E+02   -0.21835E-02   -0.21835E-02  4580   0.620E-01    0.185E+01
DAV:   6    -0.338099842659E+02    0.33445E+01   -0.65318E+01  4280   0.843E+01    0.942E+00
DAV:   7    -0.309355521109E+02    0.28744E+01   -0.12985E+01  4340   0.452E+01    0.185E+00
DAV:   8    -0.310621455237E+02   -0.12659E+00   -0.38015E+00  4020   0.392E+01    0.244E+00
DAV:   9    -0.309108763483E+02    0.15127E+00   -0.10833E+00  4700   0.188E+01    0.157E+00
DAV:  10    -0.308906779453E+02    0.20198E-01   -0.15503E-01  4640   0.711E+00    0.101E+00
DAV:  11    -0.308722334187E+02    0.18445E-01   -0.17999E-01  4320   0.680E+00    0.278E-01
DAV:  12    -0.308697165169E+02    0.25169E-02   -0.70227E-02  4840   0.427E+00    0.197E-01
DAV:  13    -0.308678806941E+02    0.18358E-02   -0.15450E-02  4000   0.193E+00    0.980E-02
DAV:  14    -0.308678625892E+02    0.18105E-04   -0.23290E-02  4300   0.278E+00    0.130E-01
DAV:  15    -0.308675952239E+02    0.26737E-03   -0.16541E-03  4000   0.433E-01    0.125E-01
DAV:  16    -0.308662411206E+02    0.13541E-02   -0.79523E-03  5960   0.145E+00    0.397E-02
DAV:  17    -0.308675418177E+02   -0.13007E-02   -0.89152E-03  5580   0.163E+00    0.112E-01
DAV:  18    -0.308668132346E+02    0.72858E-03   -0.29965E-03  4720   0.838E-01    0.540E-02
DAV:  19    -0.308672921413E+02   -0.47891E-03   -0.29855E-04  3620   0.181E-01    0.617E-02
DAV:  20    -0.308676118788E+02   -0.31974E-03   -0.71903E-05  3900   0.117E-01    0.548E-02
DAV:  21    -0.308676580184E+02   -0.46140E-04   -0.28526E-03  3320   0.820E-01    0.173E-02
DAV:  22    -0.308677069718E+02   -0.48953E-04   -0.22497E-04  4700   0.222E-01    0.996E-03
DAV:  23    -0.308677825079E+02   -0.75536E-04   -0.13042E-04  3680   0.210E-01    0.108E-02
DAV:  24    -0.308677907815E+02   -0.82735E-05   -0.10399E-04  3200   0.163E-01    0.311E-03
DAV:  25    -0.308677923988E+02   -0.16174E-05   -0.99197E-06  2500   0.232E-02
   1 F= -.30867792E+02 E0= -.30867624E+02  d E =-.308678E+02
 curvature:   0.00 expect dE= 0.000E+00 dE for cont linesearch  0.000E+00
 trial: gam= 0.00000 g(F)=  0.466E-02 g(S)=  0.000E+00 ort = 0.000E+00 (trialstep = 0.100E+01)
 search vector abs. value=  0.466E-02
 bond charge predicted
       N       E                     dE             d eps       ncg     rms          rms(c)
DAV:   1    -0.308723089826E+02   -0.45182E-02   -0.22089E-01  3380   0.195E+00    0.324E-02
DAV:   2    -0.308723640958E+02   -0.55113E-04   -0.76056E-04  4160   0.282E-01    0.259E-02
DAV:   3    -0.308723716613E+02   -0.75655E-05   -0.30179E-04  3940   0.382E-01    0.263E-02
DAV:   4    -0.308723547032E+02    0.16958E-04   -0.20925E-04  3780   0.301E-01    0.163E-02
DAV:   5    -0.308723471977E+02    0.75055E-05   -0.41879E-05  2980   0.161E-01
   2 F= -.30872347E+02 E0= -.30872179E+02  d E =-.455480E-02
 ZBRENT: can't locate minimum, use default step
 trial-energy change:   -0.004555  1 .order   -0.004452   -0.004659   -0.004246
 step:   4.0000(harm= 11.2934)  dis= 0.01391  next Energy=   -30.894098 (dE=-0.263E-01)
 bond charge predicted
       N       E                     dE             d eps       ncg     rms          rms(c)
DAV:   1    -0.308831970027E+02   -0.10842E-01   -0.19893E+00  3360   0.587E+00    0.952E-02
DAV:   2    -0.308837045561E+02   -0.50755E-03   -0.68638E-03  4240   0.703E-01    0.709E-02
DAV:   3    -0.308837214059E+02   -0.16850E-04   -0.11771E-03  4020   0.815E-01    0.648E-02
DAV:   4    -0.308836508003E+02    0.70606E-04   -0.14978E-03  4040   0.864E-01    0.439E-02
DAV:   5    -0.308835923416E+02    0.58459E-04   -0.63830E-04  4680   0.546E-01    0.100E-02
DAV:   6    -0.308835879506E+02    0.43909E-05   -0.63818E-05  3000   0.126E-01
   3 F= -.30883588E+02 E0= -.30883414E+02  d E =-.157956E-01
 curvature:  -2.81 expect dE=-0.554E-02 dE for cont linesearch -0.548E-02
 ZBRENT: increasing intervall
 opt :  10.0000  next Energy=   -30.894267 (dE=-0.265E-01)
 bond charge predicted
       N       E                     dE             d eps       ncg     rms          rms(c)
DAV:   1    -0.308932244925E+02   -0.96322E-02   -0.79747E+00  3360   0.118E+01    0.189E-01
DAV:   2    -0.308952210677E+02   -0.19966E-02   -0.26902E-02  4360   0.138E+00    0.139E-01
DAV:   3    -0.308956261383E+02   -0.40507E-03   -0.82769E-03  3980   0.205E+00    0.148E-01
DAV:   4    -0.308949390133E+02    0.68712E-03   -0.83591E-03  4320   0.191E+00    0.781E-02
DAV:   5    -0.308947808468E+02    0.15817E-03   -0.14599E-03  5340   0.854E-01    0.199E-02
DAV:   6    -0.308947796809E+02    0.11659E-05   -0.17429E-04  4680   0.214E-01    0.945E-03
DAV:   7    -0.308947797195E+02   -0.38630E-07   -0.20591E-05  3040   0.708E-02
   4 F= -.30894780E+02 E0= -.30894582E+02  d E =-.269873E-01
 curvature:  -5.48 expect dE=-0.142E-02 dE for cont linesearch -0.498E-03
 ZBRENT: extrapolating
 opt :  11.6515  next Energy=   -30.895317 (dE=-0.275E-01)
 bond charge predicted
       N       E                     dE             d eps       ncg     rms          rms(c)
DAV:   1    -0.308951503212E+02   -0.37064E-03   -0.60274E-01  3360   0.323E+00    0.526E-02
DAV:   2    -0.308952950387E+02   -0.14472E-03   -0.19882E-03  4280   0.370E-01    0.377E-02
DAV:   3    -0.308953277592E+02   -0.32720E-04   -0.66348E-04  3960   0.557E-01    0.414E-02
DAV:   4    -0.308952698643E+02    0.57895E-04   -0.63582E-04  3920   0.533E-01    0.198E-02
DAV:   5    -0.308952590845E+02    0.10780E-04   -0.93712E-05  3020   0.237E-01    0.612E-03
DAV:   6    -0.308952589698E+02    0.11467E-06   -0.17360E-05  2440   0.725E-02
   5 F= -.30895259E+02 E0= -.30895061E+02  d E =-.274666E-01
 curvature:  -5.92 expect dE=-0.139E-02 dE for cont linesearch -0.422E-05
 trial: gam= 0.03795 g(F)=  0.234E-03 g(S)=  0.000E+00 ort = 0.577E-04 (trialstep = 0.313E+01)
 search vector abs. value=  0.246E-03
 bond charge predicted
       N       E                     dE             d eps       ncg     rms          rms(c)
DAV:   1    -0.308958100136E+02   -0.55093E-03   -0.66286E-02  3360   0.109E+00    0.185E-02
DAV:   2    -0.308958225287E+02   -0.12515E-04   -0.22292E-04  4160   0.137E-01    0.147E-02
DAV:   3    -0.308958216123E+02    0.91637E-06   -0.45320E-05  3000   0.161E-01
   6 F= -.30895822E+02 E0= -.30895629E+02  d E =-.562642E-03
 ZBRENT: can't locate minimum, use default step
 trial-energy change:   -0.000563  1 .order   -0.000712   -0.000741   -0.000682
 step:  12.5212(harm= 39.5832)  dis= 0.00861  next Energy=   -30.899943 (dE=-0.468E-02)
 bond charge predicted
       N       E                     dE             d eps       ncg     rms          rms(c)
DAV:   1    -0.308973226006E+02   -0.15001E-02   -0.59612E-01  3380   0.326E+00    0.566E-02
DAV:   2    -0.308974333574E+02   -0.11076E-03   -0.22028E-03  4100   0.456E-01    0.447E-02
DAV:   3    -0.308974385006E+02   -0.51433E-05   -0.13546E-03  3920   0.742E-01    0.493E-02
DAV:   4    -0.308973705580E+02    0.67943E-04   -0.32153E-04  3960   0.414E-01    0.175E-02
DAV:   5    -0.308973652469E+02    0.53111E-05   -0.73503E-05  4260   0.187E-01
   7 F= -.30897365E+02 E0= -.30897188E+02  d E =-.210628E-02
 curvature:  -9.22 expect dE=-0.893E-03 dE for cont linesearch -0.884E-03
 ZBRENT: increasing intervall
 opt :  31.3031  next Energy=   -30.899037 (dE=-0.378E-02)
 bond charge predicted
       N       E                     dE             d eps       ncg     rms          rms(c)
DAV:   1    -0.308983731710E+02   -0.10026E-02   -0.23861E+00  3360   0.654E+00    0.104E-01
DAV:   2    -0.308988685791E+02   -0.49541E-03   -0.81627E-03  4240   0.629E-01    0.771E-02
DAV:   3    -0.308988047972E+02    0.63782E-04   -0.13219E-03  3980   0.664E-01    0.558E-02
DAV:   4    -0.308987587842E+02    0.46013E-04   -0.21482E-03  4100   0.991E-01    0.520E-02
DAV:   5    -0.308986828372E+02    0.75947E-04   -0.81835E-04  5160   0.640E-01    0.122E-02
DAV:   6    -0.308986808349E+02    0.20023E-05   -0.12156E-04  4500   0.199E-01    0.888E-03
DAV:   7    -0.308986802061E+02    0.62878E-06   -0.15168E-05  2620   0.637E-02
   8 F= -.30898680E+02 E0= -.30898522E+02  d E =-.342124E-02
 curvature: -17.43 expect dE=-0.199E-03 dE for cont linesearch -0.601E-04
 trial: gam=-0.04538 g(F)=  0.114E-04 g(S)=  0.000E+00 ort = 0.291E-04 (trialstep = 0.876E+01)
 search vector abs. value=  0.929E-05
 bond charge predicted
       N       E                     dE             d eps       ncg     rms          rms(c)
DAV:   1    -0.308988447346E+02   -0.16390E-03   -0.20142E-02  3360   0.596E-01    0.105E-02
DAV:   2    -0.308988500170E+02   -0.52824E-05   -0.84162E-05  4060   0.943E-02
   9 F= -.30898850E+02 E0= -.30898694E+02  d E =-.169811E-03
 trial-energy change:   -0.000170  1 .order   -0.000070   -0.000089   -0.000051
 step:  20.4560(harm= 20.4560)  dis= 0.00182  next Energy=   -30.898784 (dE=-0.103E-03)
 bond charge predicted
       N       E                     dE             d eps       ncg     rms          rms(c)
DAV:   1    -0.308988527712E+02   -0.80366E-05   -0.35955E-02  3360   0.812E-01    0.191E-02
DAV:   2    -0.308988777037E+02   -0.24933E-04   -0.42371E-04  4340   0.377E-01    0.244E-02
DAV:   3    -0.308988577899E+02    0.19914E-04   -0.22277E-04  3920   0.308E-01    0.108E-02
DAV:   4    -0.308988565512E+02    0.12387E-05   -0.21391E-05  2960   0.595E-02
  10 F= -.30898857E+02 E0= -.30898706E+02  d E =-.176345E-03
 curvature:  -9.40 expect dE=-0.602E-04 dE for cont linesearch -0.394E-06
 trial: gam= 0.38499 g(F)=  0.640E-05 g(S)=  0.000E+00 ort = 0.624E-06 (trialstep = 0.111E+02)
 search vector abs. value=  0.826E-05
 bond charge predicted
       N       E                     dE             d eps       ncg     rms          rms(c)
DAV:   1    -0.308988684399E+02   -0.10650E-04   -0.77385E-03  3400   0.363E-01    0.877E-03
DAV:   2    -0.308988739763E+02   -0.55365E-05   -0.85410E-05  3740   0.114E-01
  11 F= -.30898874E+02 E0= -.30898723E+02  d E =-.174251E-04
 trial-energy change:   -0.000017  1 .order   -0.000061   -0.000074   -0.000048
 step:  31.8466(harm= 31.8466)  dis= 0.00221  next Energy=   -30.898962 (dE=-0.106E-03)
 bond charge predicted
       N       E                     dE             d eps       ncg     rms          rms(c)
DAV:   1    -0.308989424379E+02   -0.73998E-04   -0.27043E-02  3420   0.669E-01    0.214E-02
DAV:   2    -0.308989659788E+02   -0.23541E-04   -0.40080E-04  4420   0.330E-01    0.210E-02
DAV:   3    -0.308989515285E+02    0.14450E-04   -0.28049E-04  3540   0.343E-01    0.135E-02
DAV:   4    -0.308989486617E+02    0.28669E-05   -0.33754E-05  3200   0.114E-01
  12 F= -.30898949E+02 E0= -.30898803E+02  d E =-.921104E-04
 curvature: -19.80 expect dE=-0.228E-04 dE for cont linesearch -0.475E-05
 trial: gam=-0.03151 g(F)=  0.115E-05 g(S)=  0.000E+00 ort = 0.141E-05 (trialstep = 0.153E+02)
 search vector abs. value=  0.107E-05
 reached required accuracy - stopping structural energy minimisation
