 running on   20 total cores
 distrk:  each k-point on   20 cores,    1 groups
 distr:  one band on    1 cores,   20 groups
 using from now: INCAR     
 vasp.5.4.1 05Feb16 (build Nov 22 2018 20:17:51) complex                        
  
 POSCAR found type information on POSCAR  Pd
 POSCAR found :  1 types and      33 ions
 scaLAPACK will be used

 ----------------------------------------------------------------------------- 
|                                                                             |
|           W    W    AA    RRRRR   N    N  II  N    N   GGGG   !!!           |
|           W    W   A  A   R    R  NN   N  II  NN   N  G    G  !!!           |
|           W    W  A    A  R    R  N N  N  II  N N  N  G       !!!           |
|           W WW W  AAAAAA  RRRRR   N  N N  II  N  N N  G  GGG   !            |
|           WW  WW  A    A  R   R   N   NN  II  N   NN  G    G                |
|           W    W  A    A  R    R  N    N  II  N    N   GGGG   !!!           |
|                                                                             |
|      For optimal performance we recommend to set                            |
|        NCORE= 4 - approx SQRT( number of cores)                             |
|      NCORE specifies how many cores store one orbital (NPAR=cpu/NCORE).     |
|      This setting can  greatly improve the performance of VASP for DFT.     |
|      The default, NPAR=number of cores might be grossly inefficient         |
|      on modern multi-core architectures or massively parallel machines.     |
|      Do your own testing !!!!                                               |
|      Unfortunately you need to use the default for GW and RPA calculations. |
|      (for HF NCORE is supported but not extensively tested yet)             |
|                                                                             |
 ----------------------------------------------------------------------------- 

 LDA part: xc-table for Ceperly-Alder, standard interpolation
 POSCAR found type information on POSCAR  Pd
 POSCAR found :  1 types and      33 ions
 POSCAR, INCAR and KPOINTS ok, starting setup
 WARNING: small aliasing (wrap around) errors must be expected
 FFT: planning ...
 WAVECAR not read
 entering main loop
       N       E                     dE             d eps       ncg     rms          rms(c)
DAV:   1     0.280339544731E+04    0.28034E+04   -0.13718E+05  6000   0.138E+03
DAV:   2     0.718435901115E+02   -0.27316E+04   -0.25579E+04  6120   0.411E+02
DAV:   3    -0.154705946905E+03   -0.22655E+03   -0.20576E+03  7120   0.109E+02
DAV:   4    -0.165590540176E+03   -0.10885E+02   -0.10417E+02  6880   0.277E+01
DAV:   5    -0.165891988072E+03   -0.30145E+00   -0.30083E+00  7560   0.374E+00    0.156E+01
RMM:   6    -0.165101897778E+03    0.79009E+00   -0.23142E+01  6018   0.156E+01    0.416E+01
RMM:   7    -0.166090713619E+03   -0.98882E+00   -0.10533E+01  6089   0.592E+00    0.174E+01
RMM:   8    -0.176072813904E+03   -0.99821E+01   -0.82982E+00  6026   0.636E+00    0.270E+01
RMM:   9    -0.166256845845E+03    0.98160E+01   -0.47962E+00  6034   0.545E+00    0.193E+01
RMM:  10    -0.161701706346E+03    0.45551E+01   -0.17547E+00  6019   0.369E+00    0.100E+01
RMM:  11    -0.161169906256E+03    0.53180E+00   -0.32543E-01  6089   0.132E+00    0.832E+00
RMM:  12    -0.160826193636E+03    0.34371E+00   -0.13912E-01  6036   0.931E-01    0.722E+00
RMM:  13    -0.160451866058E+03    0.37433E+00   -0.21342E-01  6021   0.113E+00    0.652E+00
RMM:  14    -0.159835557924E+03    0.61631E+00   -0.31572E-01  6017   0.127E+00    0.506E+00
RMM:  15    -0.159436321002E+03    0.39924E+00   -0.23858E-01  6024   0.104E+00    0.441E+00
RMM:  16    -0.159153542290E+03    0.28278E+00   -0.13077E-01  6036   0.697E-01    0.368E+00
RMM:  17    -0.159029191413E+03    0.12435E+00   -0.48596E-02  6176   0.382E-01    0.334E+00
RMM:  18    -0.158784546425E+03    0.24464E+00   -0.96470E-02  6024   0.501E-01    0.264E+00
RMM:  19    -0.158558167994E+03    0.22638E+00   -0.23378E-01  6028   0.706E-01    0.806E-01
RMM:  20    -0.158554333152E+03    0.38348E-02   -0.34581E-02  6860   0.229E-01    0.575E-01
RMM:  21    -0.158554260208E+03    0.72944E-04   -0.85736E-04  6387   0.426E-02    0.580E-01
RMM:  22    -0.158558120023E+03   -0.38598E-02   -0.43289E-03  6020   0.161E-01    0.107E+00
RMM:  23    -0.158558208620E+03   -0.88596E-04   -0.12582E-02  6018   0.290E-01    0.100E+00
RMM:  24    -0.158551378928E+03    0.68297E-02   -0.24516E-03  6088   0.109E-01    0.644E-01
RMM:  25    -0.158548938162E+03    0.24408E-02   -0.16546E-03  6019   0.901E-02    0.597E-01
RMM:  26    -0.158544097608E+03    0.48406E-02   -0.21762E-03  6011   0.102E-01    0.212E-01
RMM:  27    -0.158543606271E+03    0.49134E-03   -0.35576E-03  6011   0.131E-01    0.230E-01
RMM:  28    -0.158543253442E+03    0.35283E-03   -0.36795E-04  5791   0.243E-02    0.150E-01
RMM:  29    -0.158543351044E+03   -0.97601E-04   -0.83258E-05  5177   0.215E-02    0.156E-01
RMM:  30    -0.158544809249E+03   -0.14582E-02   -0.24329E-04  5971   0.340E-02    0.292E-01
RMM:  31    -0.158546110825E+03   -0.13016E-02   -0.47656E-04  5876   0.388E-02    0.123E-01
RMM:  32    -0.158546514840E+03   -0.40401E-03   -0.98908E-05  4436   0.171E-02    0.132E-01
RMM:  33    -0.158546774442E+03   -0.25960E-03   -0.55918E-05  4188   0.115E-02    0.915E-02
RMM:  34    -0.158547220625E+03   -0.44618E-03   -0.26581E-04  5055   0.200E-02    0.298E-02
RMM:  35    -0.158547256884E+03   -0.36258E-04   -0.72708E-05  4193   0.115E-02    0.287E-02
RMM:  36    -0.158547342671E+03   -0.85787E-04   -0.30953E-05  3911   0.842E-03    0.945E-02
RMM:  37    -0.158547264043E+03    0.78627E-04   -0.76509E-06  3376   0.644E-03    0.234E-02
RMM:  38    -0.158547266573E+03   -0.25298E-05   -0.82580E-06  3405   0.528E-03
   1 F= -.15854727E+03 E0= -.15854472E+03  d E =-.158547E+03
 curvature:   0.00 expect dE= 0.000E+00 dE for cont linesearch  0.000E+00
 trial: gam= 0.00000 g(F)=  0.486E-01 g(S)=  0.000E+00 ort = 0.000E+00 (trialstep = 0.100E+01)
 search vector abs. value=  0.486E-01
 bond charge predicted
       N       E                     dE             d eps       ncg     rms          rms(c)
DAV:   1    -0.158590301287E+03   -0.43037E-01   -0.29313E+00  6460   0.282E+00    0.369E-01
RMM:   2    -0.158604958681E+03   -0.14657E-01   -0.10247E-01  6025   0.554E-01    0.798E-01
RMM:   3    -0.158602483984E+03    0.24747E-02   -0.19260E-02  6814   0.211E-01    0.785E-01
RMM:   4    -0.158601556339E+03    0.92765E-03   -0.32902E-03  6079   0.132E-01    0.780E-01
RMM:   5    -0.158596534614E+03    0.50217E-02   -0.15521E-03  6012   0.103E-01    0.191E-01
RMM:   6    -0.158596007785E+03    0.52683E-03   -0.35826E-04  6007   0.520E-02    0.103E-01
RMM:   7    -0.158595872320E+03    0.13547E-03   -0.38405E-04  6051   0.350E-02    0.826E-02
RMM:   8    -0.158595814775E+03    0.57545E-04   -0.32536E-04  6510   0.308E-02    0.634E-02
RMM:   9    -0.158595804589E+03    0.10186E-04   -0.16444E-04  5939   0.265E-02    0.501E-02
RMM:  10    -0.158595784674E+03    0.19915E-04   -0.55631E-05  4500   0.167E-02    0.245E-02
RMM:  11    -0.158595779716E+03    0.49581E-05   -0.96803E-06  3175   0.102E-02
   2 F= -.15859578E+03 E0= -.15859326E+03  d E =-.485131E-01
 ZBRENT: can't locate minimum, use default step
 trial-energy change:   -0.048513  1 .order   -0.048597   -0.048631   -0.048564
 step:   4.0000(harm=723.8545)  dis= 0.01926  next Energy=  -176.148149 (dE=-0.176E+02)
 bond charge predicted
       N       E                     dE             d eps       ncg     rms          rms(c)
DAV:   1    -0.158686194074E+03   -0.90409E-01   -0.26470E+01  6120   0.855E+00    0.131E+00
RMM:   2    -0.158908638412E+03   -0.22244E+00   -0.11821E+00  6024   0.224E+00    0.304E+00
RMM:   3    -0.159100709373E+03   -0.19207E+00   -0.27110E-01  6551   0.886E-01    0.577E+00
RMM:   4    -0.158754913111E+03    0.34580E+00   -0.77268E-02  6018   0.648E-01    0.700E-01
RMM:   5    -0.158748407925E+03    0.65052E-02   -0.17399E-02  6024   0.324E-01    0.753E-01
RMM:   6    -0.158742868160E+03    0.55398E-02   -0.41964E-03  6043   0.169E-01    0.375E-01
RMM:   7    -0.158741857612E+03    0.10105E-02   -0.17698E-03  6237   0.897E-02    0.304E-01
RMM:   8    -0.158740674141E+03    0.11835E-02   -0.30538E-03  6173   0.974E-02    0.194E-01
RMM:   9    -0.158740455946E+03    0.21819E-03   -0.26971E-03  6639   0.932E-02    0.130E-01
RMM:  10    -0.158740375584E+03    0.80362E-04   -0.89692E-04  6497   0.584E-02    0.799E-02
RMM:  11    -0.158740321947E+03    0.53637E-04   -0.17843E-04  5713   0.322E-02    0.735E-02
RMM:  12    -0.158740286523E+03    0.35423E-04   -0.60979E-05  4353   0.172E-02    0.650E-02
RMM:  13    -0.158740232511E+03    0.54013E-04   -0.10544E-04  4709   0.193E-02    0.278E-02
RMM:  14    -0.158740226599E+03    0.59123E-05   -0.35015E-05  3774   0.137E-02
   3 F= -.15874023E+03 E0= -.15873775E+03  d E =-.192960E+00
 curvature:  -3.00 expect dE=-0.138E+00 dE for cont linesearch -0.137E+00
 ZBRENT: increasing intervall
 opt :  10.0000  next Energy=  -159.013884 (dE=-0.467E+00)
 bond charge predicted
       N       E                     dE             d eps       ncg     rms          rms(c)
DAV:   1    -0.158754210857E+03   -0.13978E-01   -0.10780E+02  6000   0.177E+01    0.313E+00
RMM:   2    -0.160205383063E+03   -0.14512E+01   -0.65191E+00  6023   0.591E+00    0.762E+00
RMM:   3    -0.160871605744E+03   -0.66622E+00   -0.15644E+00  6632   0.219E+00    0.120E+01
RMM:   4    -0.159098986414E+03    0.17726E+01   -0.53302E-01  6019   0.176E+00    0.196E+00
RMM:   5    -0.159058365850E+03    0.40621E-01   -0.14483E-01  6031   0.885E-01    0.173E+00
RMM:   6    -0.159026805129E+03    0.31561E-01   -0.34267E-02  6090   0.429E-01    0.842E-01
RMM:   7    -0.159023905539E+03    0.28996E-02   -0.75365E-03  6522   0.175E-01    0.718E-01
RMM:   8    -0.159019625456E+03    0.42801E-02   -0.54975E-03  6093   0.140E-01    0.550E-01
RMM:   9    -0.159016872771E+03    0.27527E-02   -0.87499E-03  6238   0.179E-01    0.411E-01
RMM:  10    -0.159015316765E+03    0.15560E-02   -0.14496E-02  6518   0.220E-01    0.169E-01
RMM:  11    -0.159015222254E+03    0.94512E-04   -0.16712E-03  7013   0.826E-02    0.143E-01
RMM:  12    -0.159014957201E+03    0.26505E-03   -0.22545E-04  5995   0.339E-02    0.988E-02
RMM:  13    -0.159014861053E+03    0.96148E-04   -0.51448E-04  6020   0.415E-02    0.961E-02
RMM:  14    -0.159014793107E+03    0.67947E-04   -0.35504E-04  6229   0.309E-02    0.638E-02
RMM:  15    -0.159014770086E+03    0.23021E-04   -0.98182E-05  4810   0.192E-02    0.305E-02
RMM:  16    -0.159014762686E+03    0.74002E-05   -0.24026E-05  3602   0.133E-02
   4 F= -.15901476E+03 E0= -.15901232E+03  d E =-.467496E+00
 curvature:  -6.00 expect dE=-0.246E+00 dE for cont linesearch -0.230E+00
 ZBRENT: increasing intervall
 opt :  22.0000  next Energy=  -159.484700 (dE=-0.937E+00)
 bond charge predicted
       N       E                     dE             d eps       ncg     rms          rms(c)
DAV:   1    -0.158264698333E+03    0.75007E+00   -0.46425E+02  6000   0.388E+01    0.917E+00
RMM:   2    -0.177373778058E+03   -0.19109E+02   -0.46957E+01  6019   0.117E+01    0.241E+01
RMM:   3    -0.169856662309E+03    0.75171E+01   -0.11213E+01  6172   0.630E+00    0.218E+01
RMM:   4    -0.161477504935E+03    0.83792E+01   -0.42586E+00  6019   0.535E+00    0.970E+00
RMM:   5    -0.160214411745E+03    0.12631E+01   -0.11404E+00  6021   0.275E+00    0.544E+00
RMM:   6    -0.159816692457E+03    0.39772E+00   -0.54143E-01  6026   0.175E+00    0.466E+00
RMM:   7    -0.159605062690E+03    0.21163E+00   -0.18017E-01  6107   0.929E-01    0.322E+00
RMM:   8    -0.159485114361E+03    0.11995E+00   -0.11004E-01  6041   0.733E-01    0.213E+00
RMM:   9    -0.159433542177E+03    0.51572E-01   -0.59689E-02  6061   0.499E-01    0.127E+00
RMM:  10    -0.159427745905E+03    0.57963E-02   -0.17905E-02  6840   0.263E-01    0.109E+00
RMM:  11    -0.159419966630E+03    0.77793E-02   -0.13020E-02  6034   0.249E-01    0.988E-01
RMM:  12    -0.159410180151E+03    0.97865E-02   -0.30945E-02  6066   0.377E-01    0.475E-01
RMM:  13    -0.159409821831E+03    0.35832E-03   -0.92633E-03  7149   0.182E-01    0.405E-01
RMM:  14    -0.159408264224E+03    0.15576E-02   -0.76158E-04  6229   0.642E-02    0.213E-01
RMM:  15    -0.159408059793E+03    0.20443E-03   -0.59398E-04  6017   0.599E-02    0.217E-01
RMM:  16    -0.159408118250E+03   -0.58457E-04   -0.26106E-04  5995   0.419E-02    0.225E-01
RMM:  17    -0.159407696230E+03    0.42202E-03   -0.26458E-04  5906   0.338E-02    0.781E-02
RMM:  18    -0.159407677536E+03    0.18694E-04   -0.24503E-04  5347   0.324E-02    0.540E-02
RMM:  19    -0.159407666130E+03    0.11406E-04   -0.33801E-05  3899   0.132E-02    0.272E-02
RMM:  20    -0.159407672991E+03   -0.68611E-05   -0.97023E-06  3383   0.923E-03
   5 F= -.15940767E+03 E0= -.15940517E+03  d E =-.860406E+00
 curvature: -12.29 expect dE=-0.239E+00 dE for cont linesearch -0.789E-01
 ZBRENT: increasing intervall
 opt :  46.0000  next Energy=  -159.220759 (dE=-0.673E+00)
 bond charge predicted
       N       E                     dE             d eps       ncg     rms          rms(c)
DAV:   1    -0.153747881198E+03    0.56598E+01   -0.19456E+03  6400   0.894E+01    0.230E+01
RMM:   2    -0.276549615706E+03   -0.12280E+03   -0.38011E+02  7996   0.327E+01    0.528E+01
RMM:   3    -0.213381834023E+03    0.63168E+02   -0.74832E+01  6014   0.183E+01    0.437E+01
RMM:   4    -0.176274067181E+03    0.37108E+02   -0.29673E+01  6011   0.126E+01    0.269E+01
RMM:   5    -0.164967336223E+03    0.11307E+02   -0.94402E+00  6039   0.784E+00    0.139E+01
RMM:   6    -0.162984285160E+03    0.19831E+01   -0.37946E+00  6016   0.485E+00    0.132E+01
RMM:   7    -0.161404788033E+03    0.15795E+01   -0.12329E+00  6019   0.258E+00    0.106E+01
RMM:   8    -0.160381957495E+03    0.10228E+01   -0.38213E-01  6148   0.139E+00    0.851E+00
RMM:   9    -0.159309112067E+03    0.10728E+01   -0.52947E-01  6011   0.164E+00    0.639E+00
RMM:  10    -0.158723123643E+03    0.58599E+00   -0.34942E-01  6014   0.134E+00    0.452E+00
RMM:  11    -0.158636069562E+03    0.87054E-01   -0.58511E-02  6344   0.457E-01    0.422E+00
RMM:  12    -0.158518741210E+03    0.11733E+00   -0.34569E-02  6016   0.448E-01    0.373E+00
RMM:  13    -0.158306299857E+03    0.21244E+00   -0.10451E-01  6016   0.747E-01    0.252E+00
RMM:  14    -0.158229507034E+03    0.76793E-01   -0.62391E-02  6017   0.574E-01    0.181E+00
RMM:  15    -0.158180519350E+03    0.48988E-01   -0.68747E-02  6020   0.589E-01    0.780E-01
RMM:  16    -0.158177364250E+03    0.31551E-02   -0.16827E-02  6471   0.264E-01    0.591E-01
RMM:  17    -0.158176570770E+03    0.79348E-03   -0.65449E-03  6107   0.192E-01    0.597E-01
RMM:  18    -0.158189242660E+03   -0.12672E-01   -0.17376E-02  6018   0.294E-01    0.115E+00
RMM:  19    -0.158175556468E+03    0.13686E-01   -0.92181E-03  6017   0.242E-01    0.253E-01
RMM:  20    -0.158178423572E+03   -0.28671E-02   -0.62186E-03  6020   0.182E-01    0.686E-01
RMM:  21    -0.158175610333E+03    0.28132E-02   -0.49120E-04  6018   0.573E-02    0.322E-01
RMM:  22    -0.158174740318E+03    0.87002E-03   -0.81932E-04  5944   0.718E-02    0.858E-02
RMM:  23    -0.158174704406E+03    0.35911E-04   -0.10940E-04  5455   0.256E-02    0.829E-02
RMM:  24    -0.158174747837E+03   -0.43430E-04   -0.95193E-05  4955   0.194E-02    0.291E-02
RMM:  25    -0.158174810802E+03   -0.62966E-04   -0.35982E-05  3950   0.145E-02    0.580E-02
RMM:  26    -0.158174842560E+03   -0.31758E-04   -0.14157E-05  3480   0.991E-03    0.617E-02
RMM:  27    -0.158174847185E+03   -0.46249E-05   -0.42616E-05  4031   0.141E-02
   6 F= -.15817485E+03 E0= -.15817094E+03  d E =0.372419E+00
 curvature:  29.12 expect dE= 0.198E+02 dE for cont linesearch  0.138E+02
 ZBRENT: bracketing found
 ZBRENT: interpolating
 opt :  24.5055  next Energy=  -159.429806 (dE=-0.883E+00)
 bond charge predicted
       N       E                     dE             d eps       ncg     rms          rms(c)
DAV:   1    -0.151442270082E+03    0.67326E+01   -0.15813E+03  6080   0.847E+01    0.862E+00
RMM:   2    -0.171718721573E+03   -0.20276E+02   -0.16869E+02  6918   0.258E+01    0.170E+01
RMM:   3    -0.169237832134E+03    0.24809E+01   -0.11117E+01  6337   0.781E+00    0.226E+01
RMM:   4    -0.160993617891E+03    0.82442E+01   -0.35402E+00  6029   0.481E+00    0.911E+00
RMM:   5    -0.160003446777E+03    0.99017E+00   -0.10755E+00  6024   0.265E+00    0.488E+00
RMM:   6    -0.159795306171E+03    0.20814E+00   -0.41311E-01  6025   0.155E+00    0.476E+00
RMM:   7    -0.159634567350E+03    0.16074E+00   -0.14046E-01  6119   0.855E-01    0.326E+00
RMM:   8    -0.159534636836E+03    0.99931E-01   -0.18539E-01  6193   0.875E-01    0.239E+00
RMM:   9    -0.159469808280E+03    0.64829E-01   -0.14132E-01  6322   0.706E-01    0.153E+00
RMM:  10    -0.159450081221E+03    0.19727E-01   -0.12140E-01  6295   0.688E-01    0.947E-01
RMM:  11    -0.159440781194E+03    0.93000E-02   -0.30180E-02  6814   0.353E-01    0.377E-01
RMM:  12    -0.159442078235E+03   -0.12970E-02   -0.85011E-03  6036   0.229E-01    0.464E-01
RMM:  13    -0.159440090744E+03    0.19875E-02   -0.24119E-03  6017   0.131E-01    0.272E-01
RMM:  14    -0.159439416525E+03    0.67422E-03   -0.10464E-03  6016   0.854E-02    0.153E-01
RMM:  15    -0.159439249212E+03    0.16731E-03   -0.43985E-04  6008   0.533E-02    0.102E-01
RMM:  16    -0.159439218566E+03    0.30647E-04   -0.12210E-04  5955   0.287E-02    0.584E-02
RMM:  17    -0.159439347187E+03   -0.12862E-03   -0.65933E-05  5082   0.213E-02    0.463E-02
RMM:  18    -0.159439461521E+03   -0.11433E-03   -0.30595E-05  3829   0.157E-02    0.486E-02
RMM:  19    -0.159439686723E+03   -0.22520E-03   -0.33251E-05  3990   0.148E-02    0.356E-02
RMM:  20    -0.159439778784E+03   -0.92060E-04   -0.23920E-05  3722   0.109E-02    0.186E-02
RMM:  21    -0.159440007993E+03   -0.22921E-03   -0.25094E-05  3760   0.983E-03    0.703E-02
RMM:  22    -0.159440058395E+03   -0.50402E-04   -0.14123E-05  3522   0.800E-03    0.559E-02
RMM:  23    -0.159440211129E+03   -0.15273E-03   -0.20986E-05  3704   0.798E-03    0.668E-02
RMM:  24    -0.159440216601E+03   -0.54719E-05   -0.73915E-06  3391   0.483E-03
   7 F= -.15944022E+03 E0= -.15943763E+03  d E =-.892950E+00
 curvature:  -0.05 expect dE=-0.883E-03 dE for cont linesearch -0.629E-04
 ZBRENT: interpolating
 opt :  26.5107  next Energy=  -159.448729 (dE=-0.901E+00)
 bond charge predicted
       N       E                     dE             d eps       ncg     rms          rms(c)
DAV:   1    -0.159425275576E+03    0.14936E-01   -0.11720E+01  6380   0.636E+00    0.907E-01
RMM:   2    -0.159708140648E+03   -0.28287E+00   -0.52628E-01  6023   0.169E+00    0.467E+00
RMM:   3    -0.159562749865E+03    0.14539E+00   -0.11968E-01  6449   0.665E-01    0.322E+00
RMM:   4    -0.159456500931E+03    0.10625E+00   -0.51961E-02  6011   0.590E-01    0.630E-01
RMM:   5    -0.159450563165E+03    0.59378E-02   -0.10982E-02  6015   0.264E-01    0.396E-01
RMM:   6    -0.159448997969E+03    0.15652E-02   -0.15647E-03  6025   0.985E-02    0.259E-01
RMM:   7    -0.159448605108E+03    0.39286E-03   -0.45187E-04  6226   0.505E-02    0.208E-01
RMM:   8    -0.159448082051E+03    0.52306E-03   -0.13519E-03  6035   0.741E-02    0.173E-01
RMM:   9    -0.159447769893E+03    0.31216E-03   -0.21605E-03  6430   0.852E-02    0.108E-01
RMM:  10    -0.159447752472E+03    0.17421E-04   -0.63736E-04  7269   0.508E-02    0.664E-02
RMM:  11    -0.159447707079E+03    0.45394E-04   -0.68651E-05  5511   0.218E-02    0.410E-02
RMM:  12    -0.159447681359E+03    0.25720E-04   -0.40174E-05  4095   0.141E-02    0.332E-02
RMM:  13    -0.159447667712E+03    0.13646E-04   -0.46214E-05  4245   0.149E-02    0.213E-02
RMM:  14    -0.159447665537E+03    0.21748E-05   -0.27540E-05  3619   0.118E-02
   8 F= -.15944767E+03 E0= -.15944501E+03  d E =-.900399E+00
 curvature:  -6.34 expect dE=-0.138E+00 dE for cont linesearch -0.172E-03
 trial: gam= 0.47092 g(F)=  0.218E-01 g(S)=  0.000E+00 ort =-0.115E-02 (trialstep = 0.610E+01)
 search vector abs. value=  0.315E-01
 bond charge predicted
       N       E                     dE             d eps       ncg     rms          rms(c)
DAV:   1    -0.159373069500E+03    0.74598E-01   -0.69122E+01  6000   0.166E+01    0.218E+00
RMM:   2    -0.161060784274E+03   -0.16877E+01   -0.35905E+00  6024   0.498E+00    0.984E+00
RMM:   3    -0.160125216894E+03    0.93557E+00   -0.84975E-01  6800   0.172E+00    0.675E+00
RMM:   4    -0.159598143078E+03    0.52707E+00   -0.28708E-01  6017   0.142E+00    0.147E+00
RMM:   5    -0.159571785755E+03    0.26357E-01   -0.66428E-02  6017   0.648E-01    0.117E+00
RMM:   6    -0.159562239713E+03    0.95460E-02   -0.12326E-02  6086   0.269E-01    0.867E-01
RMM:   7    -0.159557527090E+03    0.47126E-02   -0.35519E-03  6165   0.144E-01    0.634E-01
RMM:   8    -0.159552559074E+03    0.49680E-02   -0.10440E-02  6218   0.205E-01    0.485E-01
RMM:   9    -0.159550048722E+03    0.25104E-02   -0.17109E-02  6787   0.246E-01    0.339E-01
RMM:  10    -0.159549592378E+03    0.45634E-03   -0.48398E-03  7941   0.138E-01    0.154E-01
RMM:  11    -0.159549388291E+03    0.20409E-03   -0.50874E-04  6010   0.610E-02    0.118E-01
RMM:  12    -0.159549296698E+03    0.91593E-04   -0.28687E-04  5995   0.380E-02    0.136E-01
RMM:  13    -0.159549105352E+03    0.19135E-03   -0.41350E-04  6064   0.369E-02    0.673E-02
RMM:  14    -0.159549079031E+03    0.26321E-04   -0.26953E-04  6938   0.304E-02    0.217E-02
RMM:  15    -0.159549083546E+03   -0.45149E-05   -0.15177E-05  3380   0.112E-02
   9 F= -.15954908E+03 E0= -.15954640E+03  d E =-.101418E+00
 trial-energy change:   -0.101418  1 .order   -0.101386   -0.129451   -0.073322
 step:  14.0734(harm= 14.0734)  dis= 0.05313  next Energy=  -159.596943 (dE=-0.149E+00)
 bond charge predicted
       N       E                     dE             d eps       ncg     rms          rms(c)
DAV:   1    -0.159272032870E+03    0.27705E+00   -0.11866E+02  6000   0.220E+01    0.310E+00
RMM:   2    -0.162902647921E+03   -0.36306E+01   -0.70598E+00  6026   0.700E+00    0.141E+01
RMM:   3    -0.160695544170E+03    0.22071E+01   -0.17045E+00  6743   0.245E+00    0.883E+00
RMM:   4    -0.159700683376E+03    0.99486E+00   -0.59197E-01  6019   0.206E+00    0.218E+00
RMM:   5    -0.159640957307E+03    0.59726E-01   -0.14156E-01  6019   0.945E-01    0.166E+00
RMM:   6    -0.159623315524E+03    0.17642E-01   -0.27741E-02  6108   0.387E-01    0.126E+00
RMM:   7    -0.159612732003E+03    0.10584E-01   -0.73673E-03  6151   0.207E-01    0.904E-01
RMM:   8    -0.159605468329E+03    0.72637E-02   -0.11622E-02  6358   0.219E-01    0.716E-01
RMM:   9    -0.159598230858E+03    0.72375E-02   -0.23188E-02  6508   0.290E-01    0.431E-01
RMM:  10    -0.159597709795E+03    0.52106E-03   -0.16444E-02  6959   0.264E-01    0.298E-01
RMM:  11    -0.159597078360E+03    0.63144E-03   -0.28281E-03  6455   0.124E-01    0.150E-01
RMM:  12    -0.159596976971E+03    0.10139E-03   -0.44051E-04  6018   0.542E-02    0.185E-01
RMM:  13    -0.159596645363E+03    0.33161E-03   -0.42042E-04  6000   0.432E-02    0.134E-01
RMM:  14    -0.159596495148E+03    0.15022E-03   -0.51183E-04  6620   0.430E-02    0.636E-02
RMM:  15    -0.159596482832E+03    0.12317E-04   -0.15368E-04  6323   0.254E-02    0.240E-02
RMM:  16    -0.159596491771E+03   -0.89391E-05   -0.16290E-05  3403   0.108E-02
  10 F= -.15959649E+03 E0= -.15959362E+03  d E =-.148826E+00
 curvature: -10.43 expect dE=-0.125E+00 dE for cont linesearch -0.607E-04
 trial: gam= 0.22182 g(F)=  0.120E-01 g(S)=  0.000E+00 ort =-0.428E-03 (trialstep = 0.770E+01)
 search vector abs. value=  0.133E-01
 bond charge predicted
       N       E                     dE             d eps       ncg     rms          rms(c)
DAV:   1    -0.159538066898E+03    0.58416E-01   -0.46008E+01  6000   0.140E+01    0.115E+00
RMM:   2    -0.159672553063E+03   -0.13449E+00   -0.14958E+00  6023   0.303E+00    0.153E+00
RMM:   3    -0.159924045460E+03   -0.25149E+00   -0.32662E-01  7982   0.108E+00    0.529E+00
RMM:   4    -0.159690837659E+03    0.23321E+00   -0.53258E-02  6031   0.581E-01    0.144E+00
RMM:   5    -0.159664078162E+03    0.26759E-01   -0.16384E-02  6019   0.352E-01    0.691E-01
RMM:   6    -0.159660332121E+03    0.37460E-02   -0.39119E-03  6024   0.156E-01    0.548E-01
RMM:   7    -0.159657352276E+03    0.29798E-02   -0.43259E-03  6451   0.125E-01    0.425E-01
RMM:   8    -0.159654525385E+03    0.28269E-02   -0.89266E-03  6299   0.185E-01    0.278E-01
RMM:   9    -0.159654408119E+03    0.11727E-03   -0.85364E-03  7239   0.181E-01    0.254E-01
RMM:  10    -0.159654279067E+03    0.12905E-03   -0.29223E-03  6901   0.113E-01    0.137E-01
RMM:  11    -0.159654069655E+03    0.20941E-03   -0.32090E-04  6014   0.476E-02    0.134E-01
RMM:  12    -0.159653769309E+03    0.30035E-03   -0.39153E-04  6026   0.434E-02    0.776E-02
RMM:  13    -0.159653714711E+03    0.54598E-04   -0.20149E-04  6971   0.275E-02    0.494E-02
RMM:  14    -0.159653688616E+03    0.26095E-04   -0.10103E-04  5834   0.201E-02    0.328E-02
RMM:  15    -0.159653680576E+03    0.80394E-05   -0.27274E-05  3463   0.120E-02
  11 F= -.15965368E+03 E0= -.15965095E+03  d E =-.571888E-01
 trial-energy change:   -0.057189  1 .order   -0.056189   -0.091509   -0.020869
 step:   9.7493(harm=  9.9701)  dis= 0.03812  next Energy=  -159.656483 (dE=-0.600E-01)
 bond charge predicted
       N       E                     dE             d eps       ncg     rms          rms(c)
DAV:   1    -0.159649930363E+03    0.37583E-02   -0.32726E+00  6160   0.371E+00    0.281E-01
RMM:   2    -0.159659007498E+03   -0.90771E-02   -0.96920E-02  6023   0.687E-01    0.405E-01
RMM:   3    -0.159674644969E+03   -0.15637E-01   -0.16807E-02  7684   0.256E-01    0.138E+00
RMM:   4    -0.159659752451E+03    0.14893E-01   -0.34862E-03  6037   0.148E-01    0.353E-01
RMM:   5    -0.159658057620E+03    0.16948E-02   -0.92044E-04  6015   0.845E-02    0.156E-01
RMM:   6    -0.159657853125E+03    0.20450E-03   -0.20446E-04  5998   0.357E-02    0.128E-01
RMM:   7    -0.159657630911E+03    0.22221E-03   -0.44339E-04  6264   0.402E-02    0.976E-02
RMM:   8    -0.159657478097E+03    0.15281E-03   -0.85355E-04  6376   0.547E-02    0.501E-02
RMM:   9    -0.159657522502E+03   -0.44405E-04   -0.41561E-04  7435   0.402E-02    0.642E-02
RMM:  10    -0.159657507642E+03    0.14860E-04   -0.80998E-05  5761   0.215E-02    0.383E-02
RMM:  11    -0.159657489816E+03    0.17826E-04   -0.10901E-05  3250   0.947E-03    0.322E-02
RMM:  12    -0.159657464406E+03    0.25410E-04   -0.55528E-05  4657   0.157E-02    0.152E-02
RMM:  13    -0.159657462194E+03    0.22121E-05   -0.16544E-05  3139   0.104E-02
  12 F= -.15965746E+03 E0= -.15965476E+03  d E =-.609704E-01
 curvature:  -5.54 expect dE=-0.193E-01 dE for cont linesearch -0.104E-03
 trial: gam= 0.23220 g(F)=  0.348E-02 g(S)=  0.000E+00 ort = 0.500E-03 (trialstep = 0.811E+01)
 search vector abs. value=  0.443E-02
 bond charge predicted
       N       E                     dE             d eps       ncg     rms          rms(c)
DAV:   1    -0.159637726207E+03    0.19738E-01   -0.17017E+01  6000   0.859E+00    0.633E-01
RMM:   2    -0.159690950293E+03   -0.53224E-01   -0.54133E-01  6029   0.163E+00    0.995E-01
RMM:   3    -0.159713442137E+03   -0.22492E-01   -0.83542E-02  8243   0.560E-01    0.189E+00
RMM:   4    -0.159705751803E+03    0.76903E-02   -0.11906E-02  6059   0.253E-01    0.160E+00
RMM:   5    -0.159682788597E+03    0.22963E-01   -0.55709E-03  6017   0.205E-01    0.387E-01
RMM:   6    -0.159681279810E+03    0.15088E-02   -0.91706E-04  6041   0.752E-02    0.325E-01
RMM:   7    -0.159679705613E+03    0.15742E-02   -0.22981E-03  6263   0.909E-02    0.240E-01
RMM:   8    -0.159678859030E+03    0.84658E-03   -0.37448E-03  6782   0.118E-01    0.157E-01
RMM:   9    -0.159678970872E+03   -0.11184E-03   -0.48137E-03  7138   0.131E-01    0.141E-01
RMM:  10    -0.159678895717E+03    0.75155E-04   -0.53916E-04  7270   0.516E-02    0.109E-01
RMM:  11    -0.159678737565E+03    0.15815E-03   -0.96384E-05  5902   0.240E-02    0.821E-02
RMM:  12    -0.159678616671E+03    0.12089E-03   -0.21525E-04  6002   0.283E-02    0.465E-02
RMM:  13    -0.159678591710E+03    0.24961E-04   -0.10037E-04  5860   0.198E-02    0.305E-02
RMM:  14    -0.159678578159E+03    0.13551E-04   -0.11775E-04  6053   0.210E-02    0.997E-03
RMM:  15    -0.159678578446E+03   -0.28695E-06   -0.16665E-05  3151   0.104E-02
  13 F= -.15967858E+03 E0= -.15967587E+03  d E =-.211163E-01
 trial-energy change:   -0.021116  1 .order   -0.020228   -0.029166   -0.011290
 step:  11.6874(harm= 13.2268)  dis= 0.01910  next Energy=  -159.681148 (dE=-0.237E-01)
 bond charge predicted
       N       E                     dE             d eps       ncg     rms          rms(c)
DAV:   1    -0.159674612014E+03    0.39661E-02   -0.33221E+00  6000   0.379E+00    0.274E-01
RMM:   2    -0.159684889366E+03   -0.10277E-01   -0.10393E-01  6029   0.698E-01    0.443E-01
RMM:   3    -0.159688489450E+03   -0.36001E-02   -0.15413E-02  8202   0.236E-01    0.764E-01
RMM:   4    -0.159687795346E+03    0.69410E-03   -0.22124E-03  6060   0.110E-01    0.708E-01
RMM:   5    -0.159683253427E+03    0.45419E-02   -0.10349E-03  6015   0.874E-02    0.161E-01
RMM:   6    -0.159682982076E+03    0.27135E-03   -0.16903E-04  5997   0.320E-02    0.138E-01
RMM:   7    -0.159682666214E+03    0.31586E-03   -0.57299E-04  6142   0.453E-02    0.104E-01
RMM:   8    -0.159682518043E+03    0.14817E-03   -0.76784E-04  6846   0.518E-02    0.632E-02
RMM:   9    -0.159682557836E+03   -0.39793E-04   -0.73877E-04  7224   0.516E-02    0.630E-02
RMM:  10    -0.159682540723E+03    0.17112E-04   -0.85065E-05  5588   0.221E-02    0.458E-02
RMM:  11    -0.159682515168E+03    0.25555E-04   -0.10629E-05  3200   0.929E-03    0.366E-02
RMM:  12    -0.159682484649E+03    0.30519E-04   -0.53345E-05  4680   0.152E-02    0.176E-02
RMM:  13    -0.159682479699E+03    0.49494E-05   -0.28302E-05  3300   0.121E-02
  14 F= -.15968248E+03 E0= -.15967977E+03  d E =-.250175E-01
 curvature:  -7.41 expect dE=-0.734E-02 dE for cont linesearch -0.396E-03
 ZBRENT: increasing intervall
 opt :  18.8483  next Energy=  -159.679479 (dE=-0.220E-01)
 bond charge predicted
       N       E                     dE             d eps       ncg     rms          rms(c)
DAV:   1    -0.159648838347E+03    0.33646E-01   -0.13283E+01  6000   0.759E+00    0.550E-01
RMM:   2    -0.159690873018E+03   -0.42035E-01   -0.42153E-01  6030   0.144E+00    0.917E-01
RMM:   3    -0.159721714692E+03   -0.30842E-01   -0.64125E-02  8273   0.478E-01    0.206E+00
RMM:   4    -0.159695682096E+03    0.26033E-01   -0.10603E-02  6046   0.245E-01    0.109E+00
RMM:   5    -0.159683717934E+03    0.11964E-01   -0.39499E-03  6018   0.175E-01    0.332E-01
RMM:   6    -0.159682832288E+03    0.88565E-03   -0.61229E-04  6064   0.580E-02    0.282E-01
RMM:   7    -0.159681586801E+03    0.12455E-02   -0.19072E-03  6226   0.825E-02    0.211E-01
RMM:   8    -0.159680943807E+03    0.64299E-03   -0.30406E-03  6850   0.106E-01    0.138E-01
RMM:   9    -0.159681050417E+03   -0.10661E-03   -0.34128E-03  7086   0.111E-01    0.123E-01
RMM:  10    -0.159680988413E+03    0.62004E-04   -0.44181E-04  7232   0.470E-02    0.947E-02
RMM:  11    -0.159680886809E+03    0.10160E-03   -0.53578E-05  5020   0.194E-02    0.743E-02
RMM:  12    -0.159680784316E+03    0.10249E-03   -0.16233E-04  5930   0.247E-02    0.449E-02
RMM:  13    -0.159680759851E+03    0.24465E-04   -0.79937E-05  5555   0.179E-02    0.281E-02
RMM:  14    -0.159680747328E+03    0.12523E-04   -0.12303E-04  6148   0.209E-02    0.711E-03
RMM:  15    -0.159680748081E+03   -0.75256E-06   -0.12851E-05  3125   0.950E-03
  15 F= -.15968075E+03 E0= -.15967803E+03  d E =-.232859E-01
 curvature:  56.13 expect dE= 0.156E+00 dE for cont linesearch  0.262E-01
 ZBRENT: bracketing found
 ZBRENT: interpolating
 opt :  13.4980  next Energy=  -159.682920 (dE=-0.255E-01)
 bond charge predicted
       N       E                     dE             d eps       ncg     rms          rms(c)
DAV:   1    -0.159665927041E+03    0.14820E-01   -0.74032E+00  6000   0.567E+00    0.414E-01
RMM:   2    -0.159688257456E+03   -0.22330E-01   -0.23170E-01  6027   0.105E+00    0.646E-01
RMM:   3    -0.159688502927E+03   -0.24547E-03   -0.35676E-02  8148   0.363E-01    0.537E-01
RMM:   4    -0.159689446600E+03   -0.94367E-03   -0.32412E-03  6040   0.147E-01    0.763E-01
RMM:   5    -0.159685043801E+03    0.44028E-02   -0.71546E-04  6040   0.650E-02    0.249E-01
RMM:   6    -0.159684540904E+03    0.50290E-03   -0.25956E-04  6011   0.433E-02    0.203E-01
RMM:   7    -0.159683816599E+03    0.72431E-03   -0.13415E-03  6084   0.700E-02    0.157E-01
RMM:   8    -0.159683563886E+03    0.25271E-03   -0.17025E-03  7016   0.759E-02    0.124E-01
RMM:   9    -0.159683602255E+03   -0.38369E-04   -0.13593E-03  6972   0.725E-02    0.105E-01
RMM:  10    -0.159683586995E+03    0.15260E-04   -0.36123E-04  7240   0.391E-02    0.787E-02
RMM:  11    -0.159683532239E+03    0.54756E-04   -0.22133E-05  3520   0.139E-02    0.671E-02
RMM:  12    -0.159683453800E+03    0.78439E-04   -0.87376E-05  5640   0.193E-02    0.442E-02
RMM:  13    -0.159683420350E+03    0.33450E-04   -0.90537E-05  5764   0.180E-02    0.235E-02
RMM:  14    -0.159683411370E+03    0.89796E-05   -0.95561E-05  5853   0.189E-02
  16 F= -.15968341E+03 E0= -.15968070E+03  d E =-.259492E-01
 curvature:  -0.94 expect dE=-0.112E-02 dE for cont linesearch -0.331E-04
 ZBRENT: bisectioning
 opt :  16.1732  next Energy=  -159.684283 (dE=-0.268E-01)
 bond charge predicted
       N       E                     dE             d eps       ncg     rms          rms(c)
DAV:   1    -0.159678857450E+03    0.45629E-02   -0.18480E+00  6000   0.283E+00    0.209E-01
RMM:   2    -0.159684477649E+03   -0.56202E-02   -0.57879E-02  6031   0.519E-01    0.328E-01
RMM:   3    -0.159686956688E+03   -0.24790E-02   -0.86482E-03  8173   0.176E-01    0.608E-01
RMM:   4    -0.159686156699E+03    0.79999E-03   -0.13350E-03  6055   0.854E-02    0.523E-01
RMM:   5    -0.159683618855E+03    0.25378E-02   -0.61509E-04  6013   0.676E-02    0.119E-01
RMM:   6    -0.159683468916E+03    0.14994E-03   -0.96511E-05  5751   0.241E-02    0.100E-01
RMM:   7    -0.159683304824E+03    0.16409E-03   -0.31065E-04  6139   0.336E-02    0.772E-02
RMM:   8    -0.159683227315E+03    0.77509E-04   -0.38521E-04  6829   0.367E-02    0.480E-02
RMM:   9    -0.159683244748E+03   -0.17433E-04   -0.38580E-04  7098   0.376E-02    0.463E-02
RMM:  10    -0.159683236070E+03    0.86780E-05   -0.49543E-05  4658   0.170E-02
  17 F= -.15968324E+03 E0= -.15968052E+03  d E =-.257739E-01
 curvature: -24.86 expect dE=-0.447E-01 dE for cont linesearch -0.205E-02
 ZBRENT: interpolating
 opt :  14.5547  next Energy=  -159.683620 (dE=-0.262E-01)
 bond charge predicted
       N       E                     dE             d eps       ncg     rms          rms(c)
DAV:   1    -0.159682087200E+03    0.11575E-02   -0.68001E-01  6000   0.172E+00    0.102E-01
RMM:   2    -0.159684208624E+03   -0.21214E-02   -0.19578E-02  6031   0.306E-01    0.216E-01
RMM:   3    -0.159685193780E+03   -0.98516E-03   -0.30547E-03  8336   0.103E-01    0.389E-01
RMM:   4    -0.159684142650E+03    0.10511E-02   -0.32526E-04  6028   0.445E-02    0.178E-01
RMM:   5    -0.159683809074E+03    0.33358E-03   -0.11775E-04  5899   0.300E-02    0.802E-02
RMM:   6    -0.159683775259E+03    0.33815E-04   -0.18545E-05  3299   0.110E-02    0.727E-02
RMM:   7    -0.159683689017E+03    0.86242E-04   -0.17361E-04  6345   0.262E-02    0.546E-02
RMM:   8    -0.159683650438E+03    0.38580E-04   -0.26912E-04  6933   0.310E-02    0.371E-02
RMM:   9    -0.159683654062E+03   -0.36243E-05   -0.12753E-04  6209   0.228E-02    0.299E-02
RMM:  10    -0.159683649758E+03    0.43037E-05   -0.21309E-05  3343   0.113E-02
  18 F= -.15968365E+03 E0= -.15968094E+03  d E =-.261876E-01
 curvature:  -2.53 expect dE=-0.333E-02 dE for cont linesearch -0.201E-04
 trial: gam= 0.49770 g(F)=  0.132E-02 g(S)=  0.000E+00 ort =-0.188E-03 (trialstep = 0.940E+01)
 search vector abs. value=  0.223E-02
 bond charge predicted
       N       E                     dE             d eps       ncg     rms          rms(c)
DAV:   1    -0.159665963380E+03    0.17691E-01   -0.11445E+01  6000   0.688E+00    0.592E-01
RMM:   2    -0.159825265518E+03   -0.15930E+00   -0.40857E-01  6032   0.147E+00    0.353E+00
RMM:   3    -0.159726939149E+03    0.98326E-01   -0.71238E-02  7180   0.491E-01    0.166E+00
RMM:   4    -0.159698594819E+03    0.28344E-01   -0.19632E-02  6019   0.369E-01    0.478E-01
RMM:   5    -0.159695312141E+03    0.32827E-02   -0.20765E-03  6020   0.121E-01    0.293E-01
RMM:   6    -0.159694761732E+03    0.55041E-03   -0.57164E-04  6136   0.570E-02    0.249E-01
RMM:   7    -0.159694051231E+03    0.71050E-03   -0.13990E-03  6258   0.771E-02    0.217E-01
RMM:   8    -0.159693280834E+03    0.77040E-03   -0.36978E-03  6331   0.115E-01    0.101E-01
RMM:   9    -0.159693371847E+03   -0.91013E-04   -0.19432E-03  7830   0.824E-02    0.839E-02
RMM:  10    -0.159693323780E+03    0.48067E-04   -0.94182E-05  5930   0.249E-02    0.685E-02
RMM:  11    -0.159693278920E+03    0.44860E-04   -0.22516E-05  3490   0.137E-02    0.547E-02
RMM:  12    -0.159693223824E+03    0.55096E-04   -0.11098E-04  5710   0.216E-02    0.365E-02
RMM:  13    -0.159693204549E+03    0.19275E-04   -0.91667E-05  5524   0.181E-02    0.145E-02
RMM:  14    -0.159693204674E+03   -0.12473E-06   -0.19153E-05  3226   0.110E-02
  19 F= -.15969320E+03 E0= -.15969058E+03  d E =-.955492E-02
 trial-energy change:   -0.009555  1 .order   -0.008519   -0.011491   -0.005546
 step:  12.9814(harm= 18.1612)  dis= 0.00578  next Energy=  -159.694320 (dE=-0.107E-01)
 bond charge predicted
       N       E                     dE             d eps       ncg     rms          rms(c)
DAV:   1    -0.159691758529E+03    0.14460E-02   -0.16671E+00  6120   0.262E+00    0.218E-01
RMM:   2    -0.159713562070E+03   -0.21804E-01   -0.56813E-02  6034   0.520E-01    0.135E+00
RMM:   3    -0.159699912731E+03    0.13649E-01   -0.93033E-03  7089   0.180E-01    0.583E-01
RMM:   4    -0.159696545945E+03    0.33668E-02   -0.25717E-03  6019   0.133E-01    0.201E-01
RMM:   5    -0.159695993525E+03    0.55242E-03   -0.29443E-04  6011   0.472E-02    0.108E-01
RMM:   6    -0.159695914221E+03    0.79304E-04   -0.74467E-05  5073   0.212E-02    0.915E-02
RMM:   7    -0.159695789348E+03    0.12487E-03   -0.30447E-04  6245   0.354E-02    0.767E-02
RMM:   8    -0.159695712650E+03    0.76698E-04   -0.54137E-04  6325   0.429E-02    0.368E-02
RMM:   9    -0.159695721711E+03   -0.90609E-05   -0.16674E-04  6622   0.251E-02    0.285E-02
RMM:  10    -0.159695718537E+03    0.31742E-05   -0.12124E-05  3285   0.956E-03
  20 F= -.15969572E+03 E0= -.15969312E+03  d E =-.120688E-01
 curvature: -10.76 expect dE=-0.672E-02 dE for cont linesearch -0.131E-02
 ZBRENT: increasing intervall
 opt :  20.1512  next Energy=  -159.698956 (dE=-0.153E-01)
 bond charge predicted
       N       E                     dE             d eps       ncg     rms          rms(c)
DAV:   1    -0.159682300431E+03    0.13421E-01   -0.66528E+00  6000   0.524E+00    0.460E-01
RMM:   2    -0.159770247496E+03   -0.87947E-01   -0.23605E-01  6034   0.109E+00    0.266E+00
RMM:   3    -0.159716496133E+03    0.53751E-01   -0.40281E-02  7204   0.370E-01    0.123E+00
RMM:   4    -0.159701528491E+03    0.14968E-01   -0.11426E-02  6019   0.282E-01    0.398E-01
RMM:   5    -0.159699307943E+03    0.22205E-02   -0.13016E-03  6020   0.992E-02    0.214E-01
RMM:   6    -0.159698983805E+03    0.32414E-03   -0.34405E-04  6098   0.450E-02    0.178E-01
RMM:   7    -0.159698566643E+03    0.41716E-03   -0.94016E-04  6292   0.621E-02    0.150E-01
RMM:   8    -0.159698230014E+03    0.33663E-03   -0.19207E-03  6405   0.824E-02    0.703E-02
RMM:   9    -0.159698278163E+03   -0.48149E-04   -0.81017E-04  7784   0.540E-02    0.611E-02
RMM:  10    -0.159698258947E+03    0.19216E-04   -0.45797E-05  4449   0.181E-02    0.512E-02
RMM:  11    -0.159698234846E+03    0.24100E-04   -0.15249E-05  3271   0.130E-02    0.399E-02
RMM:  12    -0.159698207590E+03    0.27256E-04   -0.46407E-05  4239   0.147E-02    0.283E-02
RMM:  13    -0.159698195695E+03    0.11895E-04   -0.50673E-05  4481   0.153E-02    0.110E-02
RMM:  14    -0.159698196347E+03   -0.65151E-06   -0.16771E-05  3201   0.108E-02
  21 F= -.15969820E+03 E0= -.15969565E+03  d E =-.145466E-01
 curvature: -26.58 expect dE=-0.156E-01 dE for cont linesearch -0.701E-06
 trial: gam= 0.14680 g(F)=  0.588E-03 g(S)=  0.000E+00 ort = 0.766E-05 (trialstep = 0.115E+02)
 search vector abs. value=  0.639E-03
 bond charge predicted
       N       E                     dE             d eps       ncg     rms          rms(c)
DAV:   1    -0.159690827054E+03    0.73686E-02   -0.49818E+00  6000   0.463E+00    0.366E-01
RMM:   2    -0.159770930407E+03   -0.80103E-01   -0.16874E-01  6027   0.897E-01    0.267E+00
RMM:   3    -0.159710209749E+03    0.60721E-01   -0.27971E-02  7037   0.323E-01    0.679E-01
RMM:   4    -0.159705279979E+03    0.49298E-02   -0.62201E-03  6020   0.207E-01    0.394E-01
RMM:   5    -0.159703361211E+03    0.19188E-02   -0.97241E-04  6021   0.876E-02    0.181E-01
RMM:   6    -0.159703098259E+03    0.26295E-03   -0.31484E-04  6032   0.443E-02    0.161E-01
RMM:   7    -0.159702739665E+03    0.35859E-03   -0.78154E-04  6271   0.555E-02    0.115E-01
RMM:   8    -0.159702562100E+03    0.17756E-03   -0.10858E-03  6716   0.618E-02    0.594E-02
RMM:   9    -0.159702622099E+03   -0.59999E-04   -0.55815E-04  7549   0.465E-02    0.714E-02
RMM:  10    -0.159702593645E+03    0.28453E-04   -0.66998E-05  5136   0.201E-02    0.426E-02
RMM:  11    -0.159702574502E+03    0.19143E-04   -0.14852E-05  3278   0.112E-02    0.382E-02
RMM:  12    -0.159702545761E+03    0.28742E-04   -0.60784E-05  5079   0.169E-02    0.166E-02
RMM:  13    -0.159702543632E+03    0.21285E-05   -0.15329E-05  3172   0.989E-03
  22 F= -.15970254E+03 E0= -.15969998E+03  d E =-.434729E-02
 trial-energy change:   -0.004347  1 .order   -0.003420   -0.006808   -0.000031
 step:  11.5763(harm= 11.6000)  dis= 0.00921  next Energy=  -159.702544 (dE=-0.435E-02)
 bond charge predicted
       N       E                     dE             d eps       ncg     rms          rms(c)
DAV:   1    -0.159702546318E+03   -0.55724E-06   -0.71395E-05  6940   0.166E-02    0.437E-03
RMM:   2    -0.159702568099E+03   -0.21781E-04   -0.68390E-06  3213   0.778E-03    0.489E-02
RMM:   3    -0.159702548972E+03    0.19127E-04   -0.31211E-06  3160   0.657E-03    0.122E-02
RMM:   4    -0.159702547225E+03    0.17473E-05   -0.78895E-07  3057   0.302E-03
  23 F= -.15970255E+03 E0= -.15969998E+03  d E =-.435088E-02
 curvature:  -5.00 expect dE=-0.327E-03 dE for cont linesearch -0.158E-04
 ZBRENT: increasing intervall
 opt :  11.6339  next Energy=  -159.702552 (dE=-0.436E-02)
 bond charge predicted
       N       E                     dE             d eps       ncg     rms          rms(c)
DAV:   1    -0.159702550548E+03   -0.15761E-05   -0.12600E-04  6420   0.234E-02    0.468E-03
RMM:   2    -0.159702607193E+03   -0.56645E-04   -0.96961E-06  3265   0.728E-03    0.802E-02
RMM:   3    -0.159702553082E+03    0.54111E-04   -0.72258E-06  3222   0.965E-03    0.722E-03
RMM:   4    -0.159702551331E+03    0.17514E-05   -0.13199E-06  3088   0.380E-03
  24 F= -.15970255E+03 E0= -.15969999E+03  d E =-.435498E-02
 curvature:  -1.59 expect dE=-0.103E-03 dE for cont linesearch -0.368E-05
 ZBRENT: increasing intervall
 opt :  11.7492  next Energy=  -159.702555 (dE=-0.436E-02)
 bond charge predicted
       N       E                     dE             d eps       ncg     rms          rms(c)
DAV:   1    -0.159702556581E+03   -0.34991E-05   -0.50677E-04  6460   0.467E-02    0.515E-03
RMM:   2    -0.159702612281E+03   -0.55700E-04   -0.19109E-05  3332   0.102E-02    0.787E-02
RMM:   3    -0.159702560287E+03    0.51995E-04   -0.94965E-06  3220   0.105E-02    0.843E-03
RMM:   4    -0.159702558234E+03    0.20526E-05   -0.23180E-06  3094   0.484E-03
  25 F= -.15970256E+03 E0= -.15969999E+03  d E =-.436189E-02
 curvature:  -1.59 expect dE=-0.102E-03 dE for cont linesearch -0.144E-05
 ZBRENT: increasing intervall
 opt :  11.9799  next Energy=  -159.702560 (dE=-0.436E-02)
 bond charge predicted
       N       E                     dE             d eps       ncg     rms          rms(c)
DAV:   1    -0.159702565123E+03   -0.48359E-05   -0.20213E-03  6260   0.931E-02    0.721E-03
RMM:   2    -0.159702649254E+03   -0.84131E-04   -0.67665E-05  5272   0.180E-02    0.937E-02
RMM:   3    -0.159702573991E+03    0.75263E-04   -0.13132E-05  3265   0.965E-03    0.114E-02
RMM:   4    -0.159702571037E+03    0.29543E-05   -0.46223E-06  3158   0.801E-03
  26 F= -.15970257E+03 E0= -.15970001E+03  d E =-.437469E-02
 curvature:  -2.46 expect dE=-0.162E-03 dE for cont linesearch -0.685E-06
 ZBRENT: increasing intervall
 opt :  12.4411  next Energy=  -159.702572 (dE=-0.438E-02)
 bond charge predicted
       N       E                     dE             d eps       ncg     rms          rms(c)
DAV:   1    -0.159702567011E+03    0.69802E-05   -0.80389E-03  6040   0.186E-01    0.135E-02
RMM:   2    -0.159702822265E+03   -0.25525E-03   -0.26367E-04  5964   0.355E-02    0.161E-01
RMM:   3    -0.159702599012E+03    0.22325E-03   -0.45202E-05  4533   0.151E-02    0.208E-02
RMM:   4    -0.159702589469E+03    0.95438E-05   -0.10518E-05  3250   0.113E-02
  27 F= -.15970259E+03 E0= -.15970002E+03  d E =-.439312E-02
 curvature:  -4.33 expect dE=-0.331E-03 dE for cont linesearch -0.162E-05
 ZBRENT: bracketing found
 ZBRENT: interpolating
 opt :  12.1937  next Energy=  -159.702572 (dE=-0.438E-02)
 bond charge predicted
       N       E                     dE             d eps       ncg     rms          rms(c)
DAV:   1    -0.159702575766E+03    0.23246E-04   -0.22211E-03  6180   0.991E-02    0.145E-02
RMM:   2    -0.159702586113E+03   -0.10347E-04   -0.99141E-05  5645   0.200E-02    0.280E-02
RMM:   3    -0.159702605151E+03   -0.19038E-04   -0.15543E-05  3284   0.102E-02    0.544E-02
RMM:   4    -0.159702587397E+03    0.17754E-04   -0.10786E-05  3249   0.101E-02    0.255E-02
RMM:   5    -0.159702579969E+03    0.74283E-05   -0.45817E-06  3082   0.828E-03
  28 F= -.15970258E+03 E0= -.15970001E+03  d E =-.438362E-02
 curvature:  -3.83 expect dE=-0.262E-03 dE for cont linesearch -0.687E-05
 ZBRENT: interpolating
 opt :  12.3636  next Energy=  -159.702590 (dE=-0.439E-02)
 bond charge predicted
       N       E                     dE             d eps       ncg     rms          rms(c)
DAV:   1    -0.159702582107E+03    0.52898E-05   -0.10475E-03  6400   0.678E-02    0.762E-03
RMM:   2    -0.159702611042E+03   -0.28934E-04   -0.35830E-05  3864   0.136E-02    0.550E-02
RMM:   3    -0.159702586530E+03    0.24512E-04   -0.10348E-05  3162   0.102E-02    0.132E-02
RMM:   4    -0.159702585543E+03    0.98677E-06   -0.48062E-06  3053   0.684E-03
  29 F= -.15970259E+03 E0= -.15970002E+03  d E =-.438920E-02
 curvature:  -0.33 expect dE=-0.245E-04 dE for cont linesearch -0.303E-07
 trial: gam= 0.16028 g(F)=  0.735E-04 g(S)=  0.000E+00 ort =-0.763E-05 (trialstep = 0.117E+02)
 search vector abs. value=  0.875E-04
 bond charge predicted
       N       E                     dE             d eps       ncg     rms          rms(c)
DAV:   1    -0.159701653462E+03    0.93307E-03   -0.70733E-01  6000   0.172E+00    0.150E-01
RMM:   2    -0.159719746821E+03   -0.18093E-01   -0.26850E-02  6031   0.346E-01    0.132E+00
RMM:   3    -0.159704886549E+03    0.14860E-01   -0.42063E-03  6201   0.130E-01    0.305E-01
RMM:   4    -0.159703659834E+03    0.12267E-02   -0.13007E-03  6016   0.905E-02    0.141E-01
RMM:   5    -0.159703395725E+03    0.26411E-03   -0.16238E-04  5984   0.337E-02    0.722E-02
RMM:   6    -0.159703354835E+03    0.40890E-04   -0.27852E-05  3654   0.152E-02    0.601E-02
RMM:   7    -0.159703323837E+03    0.30998E-04   -0.44504E-05  4403   0.171E-02    0.532E-02
RMM:   8    -0.159703272372E+03    0.51465E-04   -0.24126E-04  6241   0.301E-02    0.271E-02
RMM:   9    -0.159703277182E+03   -0.48105E-05   -0.99764E-05  5799   0.203E-02
  30 F= -.15970328E+03 E0= -.15970069E+03  d E =-.691639E-03
 trial-energy change:   -0.000692  1 .order   -0.000614   -0.000846   -0.000381
 step:  15.7924(harm= 21.3157)  dis= 0.00296  next Energy=  -159.703347 (dE=-0.761E-03)
 bond charge predicted
       N       E                     dE             d eps       ncg     rms          rms(c)
DAV:   1    -0.159703157963E+03    0.11441E-03   -0.85077E-02  6240   0.599E-01    0.625E-02
RMM:   2    -0.159705021937E+03   -0.18640E-02   -0.33988E-03  6030   0.119E-01    0.422E-01
RMM:   3    -0.159703589062E+03    0.14329E-02   -0.53021E-04  6175   0.459E-02    0.133E-01
RMM:   4    -0.159703414883E+03    0.17418E-03   -0.21261E-04  5989   0.370E-02    0.661E-02
RMM:   5    -0.159703361084E+03    0.53799E-04   -0.31522E-05  3817   0.163E-02    0.276E-02
RMM:   6    -0.159703354411E+03    0.66736E-05   -0.86368E-06  3174   0.113E-02
  31 F= -.15970335E+03 E0= -.15970077E+03  d E =-.768867E-03
 curvature:  -8.63 expect dE=-0.494E-03 dE for cont linesearch -0.433E-05
 trial: gam= 0.86480 g(F)=  0.573E-04 g(S)=  0.000E+00 ort =-0.663E-05 (trialstep = 0.985E+01)
 search vector abs. value=  0.111E-03
 bond charge predicted
       N       E                     dE             d eps       ncg     rms          rms(c)
DAV:   1    -0.159702449000E+03    0.91208E-03   -0.62821E-01  6000   0.165E+00    0.107E-01
RMM:   2    -0.159709967524E+03   -0.75185E-02   -0.20391E-02  6036   0.312E-01    0.804E-01
RMM:   3    -0.159704656908E+03    0.53106E-02   -0.28898E-03  7704   0.102E-01    0.189E-01
RMM:   4    -0.159704193803E+03    0.46311E-03   -0.51083E-04  6017   0.625E-02    0.107E-01
RMM:   5    -0.159704066609E+03    0.12719E-03   -0.76600E-05  5804   0.253E-02    0.681E-02
RMM:   6    -0.159704041025E+03    0.25584E-04   -0.18238E-05  3268   0.114E-02    0.626E-02
RMM:   7    -0.159703984926E+03    0.56099E-04   -0.11822E-04  6028   0.227E-02    0.489E-02
RMM:   8    -0.159703956649E+03    0.28277E-04   -0.22962E-04  7061   0.284E-02    0.374E-02
RMM:   9    -0.159703955531E+03    0.11175E-05   -0.70602E-05  5536   0.177E-02
  32 F= -.15970396E+03 E0= -.15970136E+03  d E =-.601121E-03
 ZBRENT: can't locate minimum, use default step
 trial-energy change:   -0.000601  1 .order   -0.000466   -0.000508   -0.000424
 step:  39.4074(harm= 59.4857)  dis= 0.00465  next Energy=  -159.704887 (dE=-0.153E-02)
 bond charge predicted
       N       E                     dE             d eps       ncg     rms          rms(c)
DAV:   1    -0.159689985847E+03    0.13971E-01   -0.56462E+00  6000   0.495E+00    0.350E-01
RMM:   2    -0.159754491251E+03   -0.64505E-01   -0.19086E-01  6036   0.960E-01    0.231E+00
RMM:   3    -0.159710069864E+03    0.44421E-01   -0.27596E-02  7852   0.310E-01    0.596E-01
RMM:   4    -0.159705962762E+03    0.41071E-02   -0.49643E-03  6018   0.194E-01    0.325E-01
RMM:   5    -0.159704641692E+03    0.13211E-02   -0.82442E-04  6021   0.844E-02    0.185E-01
RMM:   6    -0.159704395097E+03    0.24660E-03   -0.27729E-04  6511   0.358E-02    0.162E-01
RMM:   7    -0.159703988887E+03    0.40621E-03   -0.84324E-04  6465   0.560E-02    0.133E-01
RMM:   8    -0.159703785775E+03    0.20311E-03   -0.11230E-03  7144   0.634E-02    0.935E-02
RMM:   9    -0.159703766197E+03    0.19578E-04   -0.61072E-04  7243   0.480E-02    0.598E-02
RMM:  10    -0.159703761172E+03    0.50256E-05   -0.10338E-04  5866   0.232E-02    0.468E-02
RMM:  11    -0.159703745809E+03    0.15362E-04   -0.11089E-05  3259   0.997E-03    0.399E-02
RMM:  12    -0.159703713941E+03    0.31869E-04   -0.25562E-05  3322   0.129E-02    0.236E-02
RMM:  13    -0.159703707195E+03    0.67457E-05   -0.17817E-05  3093   0.111E-02
  33 F= -.15970371E+03 E0= -.15970109E+03  d E =-.352784E-03
 curvature: -53.68 expect dE=-0.930E-02 dE for cont linesearch -0.395E-02
 ZBRENT: interpolating
 opt :  19.3752  next Energy=  -159.704160 (dE=-0.806E-03)
 bond charge predicted
       N       E                     dE             d eps       ncg     rms          rms(c)
DAV:   1    -0.159698157867E+03    0.55561E-02   -0.25933E+00  6000   0.336E+00    0.218E-01
RMM:   2    -0.159722764976E+03   -0.24607E-01   -0.82870E-02  6037   0.621E-01    0.140E+00
RMM:   3    -0.159706943640E+03    0.15821E-01   -0.11830E-02  8048   0.210E-01    0.374E-01
RMM:   4    -0.159705344549E+03    0.15991E-02   -0.19594E-03  6018   0.122E-01    0.222E-01
RMM:   5    -0.159704775715E+03    0.56883E-03   -0.36117E-04  6020   0.552E-02    0.130E-01
RMM:   6    -0.159704669158E+03    0.10656E-03   -0.10460E-04  5665   0.220E-02    0.116E-01
RMM:   7    -0.159704470552E+03    0.19861E-03   -0.39797E-04  6500   0.376E-02    0.101E-01
RMM:   8    -0.159704356893E+03    0.11366E-03   -0.50448E-04  6904   0.425E-02    0.786E-02
RMM:   9    -0.159704324323E+03    0.32570E-04   -0.38838E-04  7331   0.369E-02    0.485E-02
RMM:  10    -0.159704314456E+03    0.98670E-05   -0.60585E-05  5055   0.184E-02
  34 F= -.15970431E+03 E0= -.15970171E+03  d E =-.960046E-03
 curvature:  -2.78 expect dE=-0.126E-03 dE for cont linesearch -0.214E-05
 ZBRENT: interpolating
 opt :  17.6901  next Energy=  -159.704322 (dE=-0.968E-03)
 bond charge predicted
       N       E                     dE             d eps       ncg     rms          rms(c)
DAV:   1    -0.159704220442E+03    0.10388E-03   -0.18036E-02  6220   0.281E-01    0.458E-02
RMM:   2    -0.159704844000E+03   -0.62356E-03   -0.98353E-04  6021   0.638E-02    0.255E-01
RMM:   3    -0.159704290578E+03    0.55342E-03   -0.15419E-04  5936   0.256E-02    0.528E-02
RMM:   4    -0.159704276642E+03    0.13936E-04   -0.70838E-05  5398   0.226E-02    0.448E-02
RMM:   5    -0.159704251425E+03    0.25217E-04   -0.18759E-05  3275   0.146E-02    0.147E-02
RMM:   6    -0.159704249758E+03    0.16669E-05   -0.43321E-06  3120   0.683E-03
  35 F= -.15970425E+03 E0= -.15970165E+03  d E =-.895347E-03
 curvature: -10.14 expect dE=-0.522E-03 dE for cont linesearch -0.101E-04
 ZBRENT: interpolating
 opt :  18.5874  next Energy=  -159.704318 (dE=-0.964E-03)
 bond charge predicted
       N       E                     dE             d eps       ncg     rms          rms(c)
DAV:   1    -0.159704257908E+03   -0.64828E-05   -0.51695E-03  6280   0.150E-01    0.124E-02
RMM:   2    -0.159704367770E+03   -0.10986E-03   -0.19555E-04  5880   0.300E-02    0.102E-01
RMM:   3    -0.159704277306E+03    0.90464E-04   -0.21815E-05  3388   0.112E-02    0.174E-02
RMM:   4    -0.159704273157E+03    0.41486E-05   -0.11089E-05  3189   0.120E-02
  36 F= -.15970427E+03 E0= -.15970168E+03  d E =-.918747E-03
 curvature:  -3.65 expect dE=-0.166E-03 dE for cont linesearch -0.198E-05
 trial: gam= 0.55368 g(F)=  0.456E-04 g(S)=  0.000E+00 ort =-0.777E-05 (trialstep = 0.116E+02)
 search vector abs. value=  0.711E-04
 bond charge predicted
       N       E                     dE             d eps       ncg     rms          rms(c)
DAV:   1    -0.159703213747E+03    0.10636E-02   -0.55766E-01  6040   0.155E+00    0.107E-01
RMM:   2    -0.159705902139E+03   -0.26884E-02   -0.16966E-02  6031   0.285E-01    0.382E-01
RMM:   3    -0.159705706585E+03    0.19555E-03   -0.25488E-03  8249   0.952E-02    0.330E-01
RMM:   4    -0.159704827912E+03    0.87867E-03   -0.53264E-04  6013   0.626E-02    0.123E-01
RMM:   5    -0.159704652213E+03    0.17570E-03   -0.87971E-05  5858   0.267E-02    0.641E-02
RMM:   6    -0.159704625379E+03    0.26834E-04   -0.20065E-05  3306   0.126E-02    0.580E-02
RMM:   7    -0.159704585452E+03    0.39927E-04   -0.73858E-05  5374   0.184E-02    0.464E-02
RMM:   8    -0.159704553823E+03    0.31628E-04   -0.21472E-04  6704   0.276E-02    0.330E-02
RMM:   9    -0.159704554896E+03   -0.10728E-05   -0.69780E-05  5517   0.176E-02
  37 F= -.15970455E+03 E0= -.15970196E+03  d E =-.281739E-03
 trial-energy change:   -0.000282  1 .order   -0.000154   -0.000479    0.000171
 step:  10.0926(harm=  8.5447)  dis= 0.00090  next Energy=  -159.704566 (dE=-0.293E-03)
 bond charge predicted
       N       E                     dE             d eps       ncg     rms          rms(c)
DAV:   1    -0.159704555046E+03   -0.12225E-05   -0.96849E-03  6300   0.203E-01    0.105E-02
RMM:   2    -0.159704599621E+03   -0.44575E-04   -0.22038E-04  5966   0.364E-02    0.493E-02
RMM:   3    -0.159704591407E+03    0.82141E-05   -0.25346E-05  3371   0.121E-02
  38 F= -.15970459E+03 E0= -.15970201E+03  d E =-.318250E-03
 curvature:  -5.47 expect dE=-0.661E-04 dE for cont linesearch -0.110E-05
 trial: gam= 0.15190 g(F)=  0.121E-04 g(S)=  0.000E+00 ort = 0.378E-05 (trialstep = 0.113E+02)
 search vector abs. value=  0.149E-04
 reached required accuracy - stopping structural energy minimisation
 writing wavefunctions
