 running on   20 total cores
 distrk:  each k-point on   20 cores,    1 groups
 distr:  one band on    1 cores,   20 groups
 using from now: INCAR     
 vasp.5.4.1 05Feb16 (build Nov 22 2018 20:17:51) complex                        
  
 POSCAR found type information on POSCAR  Pd H 
 POSCAR found :  2 types and       5 ions
 scaLAPACK will be used

 ----------------------------------------------------------------------------- 
|                                                                             |
|           W    W    AA    RRRRR   N    N  II  N    N   GGGG   !!!           |
|           W    W   A  A   R    R  NN   N  II  NN   N  G    G  !!!           |
|           W    W  A    A  R    R  N N  N  II  N N  N  G       !!!           |
|           W WW W  AAAAAA  RRRRR   N  N N  II  N  N N  G  GGG   !            |
|           WW  WW  A    A  R   R   N   NN  II  N   NN  G    G                |
|           W    W  A    A  R    R  N    N  II  N    N   GGGG   !!!           |
|                                                                             |
|      For optimal performance we recommend to set                            |
|        NCORE= 4 - approx SQRT( number of cores)                             |
|      NCORE specifies how many cores store one orbital (NPAR=cpu/NCORE).     |
|      This setting can  greatly improve the performance of VASP for DFT.     |
|      The default, NPAR=number of cores might be grossly inefficient         |
|      on modern multi-core architectures or massively parallel machines.     |
|      Do your own testing !!!!                                               |
|      Unfortunately you need to use the default for GW and RPA calculations. |
|      (for HF NCORE is supported but not extensively tested yet)             |
|                                                                             |
 ----------------------------------------------------------------------------- 

 LDA part: xc-table for Ceperly-Alder, standard interpolation
 POSCAR found type information on POSCAR  Pd H 
 POSCAR found :  2 types and       5 ions
 POSCAR, INCAR and KPOINTS ok, starting setup
 WARNING: small aliasing (wrap around) errors must be expected
 FFT: planning ...
 WAVECAR not read
 entering main loop
       N       E                     dE             d eps       ncg     rms          rms(c)
DAV:   1     0.292696128910E+03    0.29270E+03   -0.18927E+04  4500   0.998E+02
DAV:   2    -0.190204608174E+02   -0.31172E+03   -0.27248E+03  4480   0.268E+02
DAV:   3    -0.252357024114E+02   -0.62152E+01   -0.61800E+01  6400   0.439E+01
DAV:   4    -0.253490040177E+02   -0.11330E+00   -0.11328E+00  6020   0.522E+00
DAV:   5    -0.253492390363E+02   -0.23502E-03   -0.23501E-03  6380   0.271E-01    0.606E+00
DAV:   6    -0.244534798380E+02    0.89576E+00   -0.17658E+00  5960   0.131E+01    0.150E+00
DAV:   7    -0.245196792602E+02   -0.66199E-01   -0.64112E-01  5340   0.812E+00    0.262E+00
DAV:   8    -0.244157520556E+02    0.10393E+00   -0.23141E-01  6200   0.575E+00    0.457E-01
DAV:   9    -0.244069128027E+02    0.88393E-02   -0.10575E-02  5920   0.728E-01    0.905E-02
DAV:  10    -0.244069355537E+02   -0.22751E-04   -0.44333E-04  5560   0.130E-01    0.320E-02
DAV:  11    -0.244069727003E+02   -0.37147E-04   -0.25676E-05  5640   0.364E-02    0.111E-02
DAV:  12    -0.244069779083E+02   -0.52080E-05   -0.46641E-06  4540   0.253E-02
   1 F= -.24406978E+02 E0= -.24406716E+02  d E =-.523630E-03
 Finite differences POTIM= 0.02000 DOF=   3
 bond charge predicted
       N       E                     dE             d eps       ncg     rms          rms(c)
DAV:   1    -0.244069756114E+02   -0.29111E-05   -0.88681E-02 10100   0.756E-01    0.487E-02
DAV:   2    -0.244069694873E+02    0.61241E-05   -0.67748E-04 13700   0.984E-02    0.262E-02
DAV:   3    -0.244069587024E+02    0.10785E-04   -0.39907E-05 13320   0.395E-02    0.195E-02
DAV:   4    -0.244069561209E+02    0.25815E-05   -0.70534E-06  9220   0.367E-02
   2 F= -.24406956E+02 E0= -.24406695E+02  d E =-.522664E-03
 Finite differences progress:
  Degree of freedom:   1/  3
  Displacement:        1/  2
  Total:               1/  6
 bond charge predicted
       N       E                     dE             d eps       ncg     rms          rms(c)
DAV:   1    -0.244071059577E+02   -0.14726E-03   -0.25693E-01 10080   0.128E+00    0.954E-02
DAV:   2    -0.244070239351E+02    0.82023E-04   -0.20498E-03 13140   0.199E-01    0.590E-02
DAV:   3    -0.244070965514E+02   -0.72616E-04   -0.32317E-04 14720   0.234E-01    0.112E-01
DAV:   4    -0.244069744273E+02    0.12212E-03   -0.18331E-04 13420   0.190E-01    0.327E-02
DAV:   5    -0.244069598324E+02    0.14595E-04   -0.31677E-05  9520   0.644E-02    0.194E-02
DAV:   6    -0.244069551291E+02    0.47033E-05   -0.98367E-06  8680   0.306E-02
   3 F= -.24406955E+02 E0= -.24406694E+02  d E =-.522811E-03
 Finite differences progress:
  Degree of freedom:   1/  3
  Displacement:        2/  2
  Total:               2/  6
 bond charge predicted
       N       E                     dE             d eps       ncg     rms          rms(c)
DAV:   1    -0.244069789850E+02   -0.19153E-04   -0.19748E-01 10300   0.109E+00    0.628E-02
DAV:   2    -0.244070084674E+02   -0.29482E-04   -0.14234E-03 12820   0.143E-01    0.366E-02
DAV:   3    -0.244069634953E+02    0.44972E-04   -0.80113E-05 12320   0.430E-02    0.186E-02
DAV:   4    -0.244069613403E+02    0.21549E-05   -0.11832E-05 10260   0.448E-02
   4 F= -.24406961E+02 E0= -.24406700E+02  d E =-.521970E-03
 Finite differences progress:
  Degree of freedom:   2/  3
  Displacement:        1/  2
  Total:               3/  6
 bond charge predicted
       N       E                     dE             d eps       ncg     rms          rms(c)
DAV:   1    -0.244071020663E+02   -0.13857E-03   -0.26628E-01 10080   0.129E+00    0.973E-02
DAV:   2    -0.244070225931E+02    0.79473E-04   -0.20950E-03 12600   0.189E-01    0.583E-02
DAV:   3    -0.244070963792E+02   -0.73786E-04   -0.29957E-04 14780   0.223E-01    0.116E-01
DAV:   4    -0.244069750463E+02    0.12133E-03   -0.21693E-04 13320   0.186E-01    0.315E-02
DAV:   5    -0.244069599142E+02    0.15132E-04   -0.27752E-05  9760   0.617E-02    0.192E-02
DAV:   6    -0.244069550231E+02    0.48911E-05   -0.10204E-05  8460   0.295E-02
   5 F= -.24406955E+02 E0= -.24406694E+02  d E =-.522767E-03
 Finite differences progress:
  Degree of freedom:   2/  3
  Displacement:        2/  2
  Total:               4/  6
 bond charge predicted
       N       E                     dE             d eps       ncg     rms          rms(c)
DAV:   1    -0.244069679344E+02   -0.80202E-05   -0.20640E-01 10080   0.113E+00    0.634E-02
DAV:   2    -0.244070191428E+02   -0.51208E-04   -0.15102E-03 12720   0.143E-01    0.365E-02
DAV:   3    -0.244069736909E+02    0.45452E-04   -0.81393E-05 12960   0.585E-02    0.311E-02
DAV:   4    -0.244069650218E+02    0.86691E-05   -0.16179E-05 10300   0.552E-02
   6 F= -.24406965E+02 E0= -.24406704E+02  d E =-.522328E-03
 Finite differences progress:
  Degree of freedom:   3/  3
  Displacement:        1/  2
  Total:               5/  6
 bond charge predicted
       N       E                     dE             d eps       ncg     rms          rms(c)
DAV:   1    -0.244071034849E+02   -0.12979E-03   -0.25091E-01 10080   0.125E+00    0.979E-02
DAV:   2    -0.244070186382E+02    0.84847E-04   -0.21249E-03 12600   0.176E-01    0.550E-02
DAV:   3    -0.244070587278E+02   -0.40090E-04   -0.24586E-04 15460   0.180E-01    0.102E-01
DAV:   4    -0.244069684552E+02    0.90273E-04   -0.13169E-04 12160   0.159E-01    0.217E-02
DAV:   5    -0.244069613301E+02    0.71251E-05   -0.22338E-05  9980   0.534E-02
   7 F= -.24406961E+02 E0= -.24406700E+02  d E =-.522304E-03
 Finite differences progress:
  Degree of freedom:   3/  3
  Displacement:        2/  2
  Total:               6/  6
 Finite differences POTIM=  2.000000000000000E-002
 writing wavefunctions
