 running on   35 total cores
 distrk:  each k-point on   35 cores,    1 groups
 distr:  one band on    1 cores,   35 groups
 using from now: INCAR     
 vasp.5.4.1 24Jun15 (build Oct 26 2018 17:15:27) complex                        
  
 POSCAR found type information on POSCAR  Pt O  H 
 POSCAR found :  3 types and      14 ions
 scaLAPACK will be used

 ----------------------------------------------------------------------------- 
|                                                                             |
|           W    W    AA    RRRRR   N    N  II  N    N   GGGG   !!!           |
|           W    W   A  A   R    R  NN   N  II  NN   N  G    G  !!!           |
|           W    W  A    A  R    R  N N  N  II  N N  N  G       !!!           |
|           W WW W  AAAAAA  RRRRR   N  N N  II  N  N N  G  GGG   !            |
|           WW  WW  A    A  R   R   N   NN  II  N   NN  G    G                |
|           W    W  A    A  R    R  N    N  II  N    N   GGGG   !!!           |
|                                                                             |
|      For optimal performance we recommend to set                            |
|        NCORE= 4 - approx SQRT( number of cores)                             |
|      NCORE specifies how many cores store one orbital (NPAR=cpu/NCORE).     |
|      This setting can  greatly improve the performance of VASP for DFT.     |
|      The default, NPAR=number of cores might be grossly inefficient         |
|      on modern multi-core architectures or massively parallel machines.     |
|      Do your own testing !!!!                                               |
|      Unfortunately you need to use the default for GW and RPA calculations. |
|      (for HF NCORE is supported but not extensively tested yet)             |
|                                                                             |
 ----------------------------------------------------------------------------- 

 LDA part: xc-table for Ceperly-Alder, standard interpolation
 POSCAR, INCAR and KPOINTS ok, starting setup
 WARNING: small aliasing (wrap around) errors must be expected
 FFT: planning ...
 WAVECAR not read
 entering main loop
       N       E                     dE             d eps       ncg     rms          rms(c)
DAV:   1     0.121492259417E+04    0.12149E+04   -0.51371E+04  8610   0.102E+03
DAV:   2     0.537176130227E+00   -0.12144E+04   -0.10549E+04  8610   0.332E+02
DAV:   3    -0.791386344318E+02   -0.79676E+02   -0.75915E+02 11830   0.837E+01
DAV:   4    -0.808047344124E+02   -0.16661E+01   -0.16640E+01  9765   0.151E+01
DAV:   5    -0.808401600958E+02   -0.35426E-01   -0.35421E-01 11550   0.179E+00    0.163E+01
RMM:   6    -0.816724471238E+02   -0.83229E+00   -0.14757E+01  8610   0.155E+01    0.138E+01
RMM:   7    -0.792523997426E+02    0.24200E+01   -0.49550E+00  8610   0.668E+00    0.141E+01
RMM:   8    -0.756251331967E+02    0.36273E+01   -0.14976E+00  8620   0.435E+00    0.620E+00
RMM:   9    -0.826525147108E+02   -0.70274E+01   -0.80177E-01  8610   0.216E+00    0.181E+01
RMM:  10    -0.753908790437E+02    0.72616E+01   -0.67873E-01  8620   0.186E+00    0.444E+00
RMM:  11    -0.750435309586E+02    0.34735E+00   -0.11060E-01  8620   0.113E+00    0.204E+00
RMM:  12    -0.750096639503E+02    0.33867E-01   -0.36610E-02  8620   0.654E-01    0.146E+00
RMM:  13    -0.749880389108E+02    0.21625E-01   -0.23735E-02  8617   0.544E-01    0.102E+00
RMM:  14    -0.749752191876E+02    0.12820E-01   -0.54108E-03  8613   0.220E-01    0.453E-01
RMM:  15    -0.749720754696E+02    0.31437E-02   -0.21278E-03  8610   0.161E-01    0.185E-01
RMM:  16    -0.749719027219E+02    0.17275E-03   -0.79711E-04  8532   0.103E-01    0.189E-01
RMM:  17    -0.749711471744E+02    0.75555E-03   -0.17879E-04  6060   0.539E-02    0.335E-02
RMM:  18    -0.749709660570E+02    0.18112E-03   -0.69158E-05  5770   0.290E-02    0.218E-02
RMM:  19    -0.749709373105E+02    0.28746E-04   -0.21205E-05  5479   0.216E-02
   1 F= -.74970937E+02 E0= -.74910797E+02  d E =-.749709E+02
 curvature:   0.00 expect dE= 0.000E+00 dE for cont linesearch  0.000E+00
 trial: gam= 0.00000 g(F)=  0.526E+00 g(S)=  0.000E+00 ort = 0.000E+00 (trialstep = 0.100E+01)
 search vector abs. value=  0.526E+00
 bond charge predicted
       N       E                     dE             d eps       ncg     rms          rms(c)
DAV:   1    -0.754137695764E+02   -0.44280E+00   -0.27756E+01  8610   0.127E+01    0.101E+00
RMM:   2    -0.757061294416E+02   -0.29236E+00   -0.39671E-01  8625   0.201E+00    0.426E+00
RMM:   3    -0.755623200142E+02    0.14381E+00   -0.69950E-02  8667   0.823E-01    0.255E+00
RMM:   4    -0.754467396847E+02    0.11558E+00   -0.24112E-02  8620   0.529E-01    0.831E-01
RMM:   5    -0.754379512966E+02    0.87884E-02   -0.50469E-03  8619   0.235E-01    0.479E-01
RMM:   6    -0.754344395580E+02    0.35117E-02   -0.19286E-03  8558   0.137E-01    0.224E-01
RMM:   7    -0.754341616026E+02    0.27796E-03   -0.14117E-03  8586   0.111E-01    0.206E-01
RMM:   8    -0.754338464425E+02    0.31516E-03   -0.70232E-04  8501   0.856E-02    0.149E-01
RMM:   9    -0.754333750039E+02    0.47144E-03   -0.12389E-04  5865   0.398E-02    0.559E-02
RMM:  10    -0.754332749985E+02    0.10001E-03   -0.51475E-05  5473   0.364E-02    0.400E-02
RMM:  11    -0.754331825908E+02    0.92408E-04   -0.43715E-05  5513   0.220E-02
   2 F= -.75433183E+02 E0= -.75372770E+02  d E =-.462245E+00
 ZBRENT: can't locate minimum, use default step
 trial-energy change:   -0.462245  1 .order   -0.467398   -0.525644   -0.409151
 step:   4.0000(harm=  4.5122)  dis= 0.21136  next Energy=   -76.156853 (dE=-0.119E+01)
 bond charge predicted
       N       E                     dE             d eps       ncg     rms          rms(c)
DAV:   1    -0.759798626663E+02   -0.54659E+00   -0.24443E+02  8610   0.388E+01    0.253E+00
RMM:   2    -0.777368105394E+02   -0.17569E+01   -0.43146E+00  8613   0.730E+00    0.936E+00
RMM:   3    -0.766760443960E+02    0.10608E+01   -0.74338E-01 10294   0.239E+00    0.453E+00
RMM:   4    -0.765152692900E+02    0.16078E+00   -0.12811E-01  8633   0.123E+00    0.301E+00
RMM:   5    -0.763704063499E+02    0.14486E+00   -0.39030E-02  8629   0.700E-01    0.110E+00
RMM:   6    -0.763649879839E+02    0.54184E-02   -0.23950E-02  8634   0.452E-01    0.902E-01
RMM:   7    -0.763595341703E+02    0.54538E-02   -0.17036E-02  8616   0.412E-01    0.619E-01
RMM:   8    -0.763549718786E+02    0.45623E-02   -0.64757E-03  8620   0.271E-01    0.348E-01
RMM:   9    -0.763528827639E+02    0.20891E-02   -0.12722E-03  8593   0.124E-01    0.161E-01
RMM:  10    -0.763521572736E+02    0.72549E-03   -0.24403E-04  6349   0.533E-02    0.857E-02
RMM:  11    -0.763515026918E+02    0.65458E-03   -0.36045E-04  7218   0.532E-02    0.569E-02
RMM:  12    -0.763513453039E+02    0.15739E-03   -0.85352E-05  5872   0.313E-02    0.951E-02
RMM:  13    -0.763510038620E+02    0.34144E-03   -0.23408E-05  5728   0.208E-02    0.146E-02
RMM:  14    -0.763518732200E+02   -0.86936E-03   -0.17556E-04  6135   0.284E-02    0.261E-01
RMM:  15    -0.763515066966E+02    0.36652E-03   -0.22706E-05  5742   0.216E-02    0.221E-01
RMM:  16    -0.763510251278E+02    0.48157E-03   -0.13549E-05  5542   0.102E-02    0.153E-01
RMM:  17    -0.763507608757E+02    0.26425E-03   -0.27269E-05  5740   0.125E-02    0.770E-02
RMM:  18    -0.763507746238E+02   -0.13748E-04   -0.13286E-05  5646   0.120E-02
   3 F= -.76350775E+02 E0= -.76290953E+02  d E =-.137984E+01
 curvature:  -2.21 expect dE=-0.605E+00 dE for cont linesearch -0.242E+00
 ZBRENT: increasing intervall
 opt :  10.0000  next Energy=   -76.778658 (dE=-0.181E+01)
 bond charge predicted
       N       E                     dE             d eps       ncg     rms          rms(c)
DAV:   1    -0.753885169767E+02    0.96224E+00   -0.94914E+02  8610   0.819E+01    0.553E+00
RMM:   2    -0.774749934677E+02   -0.20865E+01   -0.24496E+01  8636   0.165E+01    0.539E+00
RMM:   3    -0.818012767386E+02   -0.43263E+01   -0.37969E+00 10224   0.478E+00    0.139E+01
RMM:   4    -0.776730528991E+02    0.41282E+01   -0.42979E-01  8656   0.216E+00    0.452E+00
RMM:   5    -0.774418403935E+02    0.23121E+00   -0.11924E-01  8644   0.116E+00    0.280E+00
RMM:   6    -0.774229414406E+02    0.18899E-01   -0.42439E-02  8642   0.569E-01    0.294E+00
RMM:   7    -0.774158311968E+02    0.71102E-02   -0.14368E-01  8616   0.116E+00    0.257E+00
RMM:   8    -0.774184961572E+02   -0.26650E-02   -0.74263E-02  8701   0.832E-01    0.272E+00
RMM:   9    -0.773363370234E+02    0.82159E-01   -0.14421E-02  9020   0.343E-01    0.115E+00
RMM:  10    -0.773207303437E+02    0.15607E-01   -0.44375E-03  8610   0.220E-01    0.283E-01
RMM:  11    -0.773195356608E+02    0.11947E-02   -0.14164E-03  8578   0.141E-01    0.164E-01
RMM:  12    -0.773187766604E+02    0.75900E-03   -0.10501E-03  8447   0.887E-02    0.111E-01
RMM:  13    -0.773183194945E+02    0.45717E-03   -0.35027E-04  6970   0.689E-02    0.713E-02
RMM:  14    -0.773182044102E+02    0.11508E-03   -0.79755E-05  5635   0.356E-02    0.612E-02
RMM:  15    -0.773179845451E+02    0.21987E-03   -0.46611E-05  5701   0.296E-02    0.682E-02
RMM:  16    -0.773178423701E+02    0.14217E-03   -0.49781E-05  5781   0.244E-02    0.490E-02
RMM:  17    -0.773178915064E+02   -0.49136E-04   -0.15620E-05  5677   0.160E-02
   4 F= -.77317892E+02 E0= -.77244421E+02  d E =-.234695E+01
 curvature:  -3.90 expect dE=-0.134E+01 dE for cont linesearch -0.145E-05
 trial: gam= 0.65661 g(F)=  0.345E+00 g(S)=  0.000E+00 ort =-0.442E-03 (trialstep = 0.258E+01)
 search vector abs. value=  0.571E+00
 bond charge predicted
       N       E                     dE             d eps       ncg     rms          rms(c)
DAV:   1    -0.770234483797E+02    0.29439E+00   -0.15854E+02  8610   0.345E+01    0.473E+00
RMM:   2    -0.868422879823E+02   -0.98188E+01   -0.39358E+00  8637   0.517E+00    0.208E+01
RMM:   3    -0.785775570746E+02    0.82647E+01   -0.17233E+00  8613   0.339E+00    0.993E+00
RMM:   4    -0.772571756986E+02    0.13204E+01   -0.32016E-01  8629   0.161E+00    0.515E+00
RMM:   5    -0.768774392025E+02    0.37974E+00   -0.95859E-02  8616   0.103E+00    0.244E+00
RMM:   6    -0.767923973745E+02    0.85042E-01   -0.82133E-02  8622   0.731E-01    0.142E+00
RMM:   7    -0.767772296087E+02    0.15168E-01   -0.21853E-02  8611   0.484E-01    0.118E+00
RMM:   8    -0.767626814875E+02    0.14548E-01   -0.78586E-03  8618   0.305E-01    0.643E-01
RMM:   9    -0.767578738597E+02    0.48076E-02   -0.45218E-03  8616   0.229E-01    0.355E-01
RMM:  10    -0.767593431969E+02   -0.14693E-02   -0.25814E-03  8610   0.157E-01    0.480E-01
RMM:  11    -0.767573698523E+02    0.19733E-02   -0.12445E-03  8582   0.127E-01    0.222E-01
RMM:  12    -0.767569241409E+02    0.44571E-03   -0.57238E-05  5625   0.295E-02    0.946E-02
RMM:  13    -0.767570486630E+02   -0.12452E-03   -0.75106E-05  5687   0.282E-02    0.249E-02
RMM:  14    -0.767575287620E+02   -0.48010E-03   -0.55602E-05  5625   0.262E-02    0.158E-01
RMM:  15    -0.767573339293E+02    0.19483E-03   -0.18429E-05  5590   0.198E-02    0.677E-02
RMM:  16    -0.767573399135E+02   -0.59843E-05   -0.23158E-05  5576   0.125E-02
   5 F= -.76757340E+02 E0= -.76683176E+02  d E =0.560552E+00
 trial-energy change:    0.560552  1 .order    1.143187   -0.888145    3.174519
 step:   1.1074(harm=  0.5637)  dis= 0.06339  next Energy=   -77.554742 (dE=-0.237E+00)
 bond charge predicted
       N       E                     dE             d eps       ncg     rms          rms(c)
DAV:   1    -0.777659081168E+02   -0.10086E+01   -0.54256E+01  9205   0.195E+01    0.510E+00
RMM:   2    -0.882499540720E+02   -0.10484E+02   -0.42173E+00  8620   0.448E+00    0.177E+01
RMM:   3    -0.796222078954E+02    0.86277E+01   -0.13741E+00  8617   0.297E+00    0.983E+00
RMM:   4    -0.776811451078E+02    0.19411E+01   -0.62580E-01  8629   0.216E+00    0.294E+00
RMM:   5    -0.775908975134E+02    0.90248E-01   -0.10906E-01  8629   0.107E+00    0.203E+00
RMM:   6    -0.775351003657E+02    0.55797E-01   -0.42340E-02  8664   0.519E-01    0.941E-01
RMM:   7    -0.775387644528E+02   -0.36641E-02   -0.12921E-02  8645   0.396E-01    0.941E-01
RMM:   8    -0.775293894585E+02    0.93750E-02   -0.11314E-02  8631   0.290E-01    0.587E-01
RMM:   9    -0.775272103338E+02    0.21791E-02   -0.50575E-03  8605   0.223E-01    0.435E-01
RMM:  10    -0.775257098847E+02    0.15004E-02   -0.97807E-04  8500   0.106E-01    0.319E-01
RMM:  11    -0.775243932647E+02    0.13166E-02   -0.24582E-04  6326   0.549E-02    0.419E-02
RMM:  12    -0.775243967633E+02   -0.34986E-05   -0.58091E-05  5627   0.337E-02
   6 F= -.77524397E+02 E0= -.77450515E+02  d E =-.206505E+00
 curvature:  -0.43 expect dE=-0.716E-01 dE for cont linesearch -0.211E-03
 trial: gam= 0.09582 g(F)=  0.165E+00 g(S)=  0.000E+00 ort =-0.167E-01 (trialstep = 0.228E+01)
 search vector abs. value=  0.167E+00
 bond charge predicted
       N       E                     dE             d eps       ncg     rms          rms(c)
DAV:   1    -0.777499893617E+02   -0.22560E+00   -0.50023E+01  8610   0.163E+01    0.101E+00
RMM:   2    -0.781246233237E+02   -0.37463E+00   -0.91286E-01  8637   0.389E+00    0.441E+00
RMM:   3    -0.779083216547E+02    0.21630E+00   -0.18173E-01 10917   0.111E+00    0.238E+00
RMM:   4    -0.778348340121E+02    0.73488E-01   -0.21214E-02  8653   0.406E-01    0.573E-01
RMM:   5    -0.778337393560E+02    0.10947E-02   -0.30396E-03  8620   0.188E-01    0.603E-01
RMM:   6    -0.778314069576E+02    0.23324E-02   -0.18532E-03  8574   0.126E-01    0.533E-01
RMM:   7    -0.778291933120E+02    0.22136E-02   -0.84395E-03  8627   0.242E-01    0.357E-01
RMM:   8    -0.778272218994E+02    0.19714E-02   -0.27244E-03  8810   0.150E-01    0.102E-01
RMM:   9    -0.778271046051E+02    0.11729E-03   -0.35614E-04  7086   0.638E-02    0.639E-02
RMM:  10    -0.778270824609E+02    0.22144E-04   -0.87861E-05  5554   0.429E-02
   7 F= -.77827082E+02 E0= -.77754393E+02  d E =-.302686E+00
 trial-energy change:   -0.302686  1 .order   -0.304973   -0.374092   -0.235854
 step:   8.4391(harm=  6.1821)  dis= 0.12650  next Energy=   -78.100068 (dE=-0.576E+00)
 bond charge predicted
       N       E                     dE             d eps       ncg     rms          rms(c)
DAV:   1    -0.770679806354E+02    0.75912E+00   -0.36754E+02  8610   0.459E+01    0.305E+00
RMM:   2    -0.784114321393E+02   -0.13435E+01   -0.11462E+01  8619   0.125E+01    0.534E+00
RMM:   3    -0.800193270477E+02   -0.16079E+01   -0.16579E+00 10143   0.303E+00    0.103E+01
RMM:   4    -0.781192714196E+02    0.19001E+01   -0.27653E-01  8636   0.177E+00    0.215E+00
RMM:   5    -0.780751351164E+02    0.44136E-01   -0.47391E-02  8648   0.661E-01    0.186E+00
RMM:   6    -0.780460015896E+02    0.29134E-01   -0.13899E-02  8629   0.343E-01    0.149E+00
RMM:   7    -0.780241131521E+02    0.21888E-01   -0.24474E-02  8627   0.435E-01    0.106E+00
RMM:   8    -0.780063870606E+02    0.17726E-01   -0.77954E-02  8622   0.718E-01    0.394E-01
RMM:   9    -0.780068372386E+02   -0.45018E-03   -0.13196E-02  8630   0.454E-01    0.356E-01
RMM:  10    -0.780051146459E+02    0.17226E-02   -0.26344E-03  9823   0.152E-01    0.193E-01
RMM:  11    -0.780039767248E+02    0.11379E-02   -0.11609E-03  8526   0.957E-02    0.980E-02
RMM:  12    -0.780037513759E+02    0.22535E-03   -0.63788E-04  8087   0.749E-02    0.466E-02
RMM:  13    -0.780037111640E+02    0.40212E-04   -0.97709E-05  5625   0.362E-02
   8 F= -.78003711E+02 E0= -.77934226E+02  d E =-.479314E+00
 curvature:  -2.10 expect dE=-0.166E+00 dE for cont linesearch -0.205E-01
 ZBRENT: interpolating
 opt :   6.7089  next Energy=   -78.038638 (dE=-0.514E+00)
 bond charge predicted
       N       E                     dE             d eps       ncg     rms          rms(c)
DAV:   1    -0.780036955968E+02    0.55779E-04   -0.28709E+01 10990   0.123E+01    0.806E-01
RMM:   2    -0.780982296544E+02   -0.94534E-01   -0.51896E-01  8610   0.293E+00    0.205E+00
RMM:   3    -0.781784098583E+02   -0.80180E-01   -0.88026E-02  9872   0.727E-01    0.301E+00
RMM:   4    -0.780457817449E+02    0.13263E+00   -0.17454E-02  8645   0.413E-01    0.391E-01
RMM:   5    -0.780434084438E+02    0.23733E-02   -0.26271E-03  8611   0.183E-01    0.363E-01
RMM:   6    -0.780420114365E+02    0.13970E-02   -0.10354E-03  8547   0.965E-02    0.255E-01
RMM:   7    -0.780418788937E+02    0.13254E-03   -0.38302E-03  8613   0.181E-01    0.292E-01
RMM:   8    -0.780410077767E+02    0.87112E-03   -0.23071E-03  8706   0.141E-01    0.167E-01
RMM:   9    -0.780406816697E+02    0.32611E-03   -0.30744E-04  6796   0.611E-02    0.602E-02
RMM:  10    -0.780406280475E+02    0.53622E-04   -0.87272E-05  5581   0.447E-02
   9 F= -.78040628E+02 E0= -.77970180E+02  d E =-.516231E+00
 curvature:  -3.59 expect dE=-0.174E+00 dE for cont linesearch -0.303E-03
 trial: gam= 0.33995 g(F)=  0.486E-01 g(S)=  0.000E+00 ort =-0.376E-02 (trialstep = 0.317E+01)
 search vector abs. value=  0.654E-01
 bond charge predicted
       N       E                     dE             d eps       ncg     rms          rms(c)
DAV:   1    -0.780917950569E+02   -0.51113E-01   -0.30245E+01 10885   0.126E+01    0.729E-01
RMM:   2    -0.782902157055E+02   -0.19842E+00   -0.51435E-01  8613   0.282E+00    0.336E+00
RMM:   3    -0.781590115143E+02    0.13120E+00   -0.84815E-02 10952   0.762E-01    0.120E+00
RMM:   4    -0.781460837829E+02    0.12928E-01   -0.93291E-03  8632   0.331E-01    0.788E-01
RMM:   5    -0.781388733100E+02    0.72105E-02   -0.30795E-03  8610   0.193E-01    0.509E-01
RMM:   6    -0.781364270757E+02    0.24462E-02   -0.47755E-03  8610   0.183E-01    0.329E-01
RMM:   7    -0.781357741828E+02    0.65289E-03   -0.36202E-03  8626   0.180E-01    0.248E-01
RMM:   8    -0.781349275946E+02    0.84659E-03   -0.91006E-04  8460   0.941E-02    0.125E-01
RMM:   9    -0.781347534941E+02    0.17410E-03   -0.14087E-04  5695   0.405E-02    0.508E-02
RMM:  10    -0.781347342402E+02    0.19254E-04   -0.78699E-05  5551   0.459E-02
  10 F= -.78134734E+02 E0= -.78064597E+02  d E =-.941062E-01
 trial-energy change:   -0.094106  1 .order   -0.091465   -0.150125   -0.032806
 step:   3.9285(harm=  4.0556)  dis= 0.04455  next Energy=   -78.138699 (dE=-0.981E-01)
 bond charge predicted
       N       E                     dE             d eps       ncg     rms          rms(c)
DAV:   1    -0.781362899516E+02   -0.15365E-02   -0.17343E+00 10465   0.302E+00    0.171E-01
RMM:   2    -0.781472774496E+02   -0.10987E-01   -0.24353E-02  8610   0.516E-01    0.806E-01
RMM:   3    -0.781394096102E+02    0.78678E-02   -0.26719E-03  8940   0.183E-01    0.281E-01
RMM:   4    -0.781385872391E+02    0.82237E-03   -0.60025E-04  7993   0.784E-02    0.177E-01
RMM:   5    -0.781381713566E+02    0.41588E-03   -0.16204E-04  5762   0.482E-02    0.937E-02
RMM:   6    -0.781380836136E+02    0.87743E-04   -0.19884E-04  5882   0.500E-02
  11 F= -.78138084E+02 E0= -.78067866E+02  d E =-.974556E-01
 curvature:  -2.74 expect dE=-0.197E+00 dE for cont linesearch -0.549E-04
 trial: gam= 1.44930 g(F)=  0.718E-01 g(S)=  0.000E+00 ort =-0.114E-02 (trialstep = 0.106E+01)
 search vector abs. value=  0.206E+00
 bond charge predicted
       N       E                     dE             d eps       ncg     rms          rms(c)
DAV:   1    -0.781867086310E+02   -0.48537E-01   -0.12954E+01  9345   0.850E+00    0.672E-01
RMM:   2    -0.785848813091E+02   -0.39817E+00   -0.21601E-01  8614   0.171E+00    0.502E+00
RMM:   3    -0.782181281889E+02    0.36675E+00   -0.45479E-02  8668   0.576E-01    0.974E-01
RMM:   4    -0.782025394333E+02    0.15589E-01   -0.12075E-02  8622   0.390E-01    0.531E-01
RMM:   5    -0.781981090051E+02    0.44304E-02   -0.23889E-03  8612   0.165E-01    0.246E-01
RMM:   6    -0.781972327795E+02    0.87623E-03   -0.75645E-04  8518   0.789E-02    0.127E-01
RMM:   7    -0.781974729682E+02   -0.24019E-03   -0.10903E-03  8604   0.964E-02    0.178E-01
RMM:   8    -0.781969383145E+02    0.53465E-03   -0.49766E-04  8063   0.652E-02    0.446E-02
RMM:   9    -0.781969146009E+02    0.23714E-04   -0.52528E-05  5529   0.313E-02
  12 F= -.78196915E+02 E0= -.78126460E+02  d E =-.588310E-01
 trial-energy change:   -0.058831  1 .order   -0.059457   -0.073991   -0.044924
 step:   2.6870(harm=  2.6870)  dis= 0.05309  next Energy=   -78.232256 (dE=-0.942E-01)
 bond charge predicted
       N       E                     dE             d eps       ncg     rms          rms(c)
DAV:   1    -0.781983998712E+02   -0.14616E-02   -0.30898E+01  8820   0.132E+01    0.112E+00
RMM:   2    -0.795847961542E+02   -0.13864E+01   -0.64220E-01  8610   0.318E+00    0.878E+00
RMM:   3    -0.782908764467E+02    0.12939E+01   -0.14320E-01  8765   0.101E+00    0.168E+00
RMM:   4    -0.782402700295E+02    0.50606E-01   -0.37049E-02  8614   0.686E-01    0.766E-01
RMM:   5    -0.782319228901E+02    0.83471E-02   -0.63719E-03  8620   0.260E-01    0.462E-01
RMM:   6    -0.782297746303E+02    0.21483E-02   -0.18870E-03  8616   0.146E-01    0.279E-01
RMM:   7    -0.782290017659E+02    0.77286E-03   -0.17387E-03  8611   0.126E-01    0.197E-01
RMM:   8    -0.782283259980E+02    0.67577E-03   -0.21176E-03  8610   0.121E-01    0.591E-02
RMM:   9    -0.782282970217E+02    0.28976E-04   -0.15681E-04  5772   0.587E-02
  13 F= -.78228297E+02 E0= -.78156744E+02  d E =-.902134E-01
 curvature:  -3.95 expect dE=-0.416E-01 dE for cont linesearch -0.374E-04
 trial: gam= 0.08269 g(F)=  0.105E-01 g(S)=  0.000E+00 ort =-0.140E-02 (trialstep = 0.138E+01)
 search vector abs. value=  0.117E-01
 bond charge predicted
       N       E                     dE             d eps       ncg     rms          rms(c)
DAV:   1    -0.782398961054E+02   -0.11570E-01   -0.12540E+00 10990   0.251E+00    0.971E-02
RMM:   2    -0.782490567716E+02   -0.91607E-02   -0.14233E-02  8608   0.418E-01    0.747E-01
RMM:   3    -0.782416410455E+02    0.74157E-02   -0.20039E-03  9622   0.131E-01    0.124E-01
RMM:   4    -0.782413215886E+02    0.31946E-03   -0.15719E-04  5836   0.524E-02    0.697E-02
RMM:   5    -0.782412690393E+02    0.52549E-04   -0.67908E-05  5520   0.412E-02
  14 F= -.78241269E+02 E0= -.78169800E+02  d E =-.129720E-01
 ZBRENT: can't locate minimum, use default step
 trial-energy change:   -0.012972  1 .order   -0.012942   -0.014418   -0.011465
 step:   5.5274(harm=  6.7466)  dis= 0.03622  next Energy=   -78.263494 (dE=-0.352E-01)
 bond charge predicted
       N       E                     dE             d eps       ncg     rms          rms(c)
DAV:   1    -0.782520918770E+02   -0.10770E-01   -0.11328E+01  8610   0.756E+00    0.317E-01
RMM:   2    -0.783628306212E+02   -0.11074E+00   -0.14457E-01  8610   0.145E+00    0.263E+00
RMM:   3    -0.782695899794E+02    0.93241E-01   -0.24033E-02 10318   0.401E-01    0.383E-01
RMM:   4    -0.782661768043E+02    0.34132E-02   -0.16254E-03  8570   0.163E-01    0.220E-01
RMM:   5    -0.782656746682E+02    0.50214E-03   -0.46568E-04  8041   0.713E-02    0.176E-01
RMM:   6    -0.782656930501E+02   -0.18382E-04   -0.15414E-03  8592   0.988E-02    0.229E-01
RMM:   7    -0.782651297304E+02    0.56332E-03   -0.98694E-04  8482   0.934E-02    0.107E-01
RMM:   8    -0.782650074036E+02    0.12233E-03   -0.21700E-04  5976   0.466E-02    0.551E-02
RMM:   9    -0.782649774547E+02    0.29949E-04   -0.67129E-05  5440   0.431E-02
  15 F= -.78264977E+02 E0= -.78193739E+02  d E =-.366804E-01
 curvature:  -3.60 expect dE=-0.114E-01 dE for cont linesearch -0.318E-02
 ZBRENT: increasing intervall
 opt :  13.8185  next Energy=   -78.249580 (dE=-0.213E-01)
 bond charge predicted
       N       E                     dE             d eps       ncg     rms          rms(c)
DAV:   1    -0.781680150465E+02    0.96992E-01   -0.45192E+01  8610   0.152E+01    0.772E-01
RMM:   2    -0.787630374918E+02   -0.59502E+00   -0.85105E-01  8610   0.381E+00    0.620E+00
RMM:   3    -0.782744958623E+02    0.48854E+00   -0.16230E-01 10394   0.974E-01    0.119E+00
RMM:   4    -0.782525330217E+02    0.21963E-01   -0.13992E-02  8620   0.486E-01    0.635E-01
RMM:   5    -0.782460965429E+02    0.64365E-02   -0.26917E-03  8569   0.178E-01    0.384E-01
RMM:   6    -0.782453429028E+02    0.75364E-03   -0.18692E-03  8550   0.130E-01    0.368E-01
RMM:   7    -0.782431048387E+02    0.22381E-02   -0.71674E-03  8635   0.229E-01    0.255E-01
RMM:   8    -0.782425737230E+02    0.53112E-03   -0.27475E-03  9135   0.162E-01    0.120E-01
RMM:   9    -0.782424609539E+02    0.11277E-03   -0.33295E-04  6933   0.572E-02    0.759E-02
RMM:  10    -0.782423610764E+02    0.99877E-04   -0.91509E-05  5386   0.423E-02
  16 F= -.78242361E+02 E0= -.78171654E+02  d E =-.140641E-01
 curvature:  17.42 expect dE= 0.365E+00 dE for cont linesearch  0.110E+00
 ZBRENT: bracketing found
 ZBRENT: interpolating
 opt :   7.7862  next Energy=   -78.268614 (dE=-0.403E-01)
 bond charge predicted
       N       E                     dE             d eps       ncg     rms          rms(c)
DAV:   1    -0.782345443420E+02    0.79166E-02   -0.23971E+01  8610   0.110E+01    0.460E-01
RMM:   2    -0.784324770175E+02   -0.19793E+00   -0.35542E-01  8613   0.240E+00    0.344E+00
RMM:   3    -0.782770041084E+02    0.15547E+00   -0.65701E-02 10941   0.632E-01    0.535E-01
RMM:   4    -0.782708706712E+02    0.61334E-02   -0.30920E-03  8617   0.220E-01    0.309E-01
RMM:   5    -0.782700968299E+02    0.77384E-03   -0.81255E-04  8502   0.866E-02    0.289E-01
RMM:   6    -0.782693623186E+02    0.73451E-03   -0.19161E-03  8552   0.127E-01    0.246E-01
RMM:   7    -0.782684348860E+02    0.92743E-03   -0.38543E-03  8703   0.160E-01    0.103E-01
RMM:   8    -0.782683753567E+02    0.59529E-04   -0.56474E-04  8141   0.830E-02
  17 F= -.78268375E+02 E0= -.78197410E+02  d E =-.400783E-01
 curvature:  -0.58 expect dE=-0.233E-02 dE for cont linesearch -0.206E-04
 trial: gam= 0.42035 g(F)=  0.404E-02 g(S)=  0.000E+00 ort =-0.648E-03 (trialstep = 0.266E+01)
 search vector abs. value=  0.557E-02
 bond charge predicted
       N       E                     dE             d eps       ncg     rms          rms(c)
DAV:   1    -0.782710568471E+02   -0.26220E-02   -0.19625E+00  8960   0.345E+00    0.351E-01
RMM:   2    -0.783542091026E+02   -0.83152E-01   -0.37778E-02  8612   0.592E-01    0.240E+00
RMM:   3    -0.782781075069E+02    0.76102E-01   -0.77064E-03  8610   0.266E-01    0.586E-01
RMM:   4    -0.782726311968E+02    0.54763E-02   -0.26564E-03  8610   0.170E-01    0.264E-01
RMM:   5    -0.782714571174E+02    0.11741E-02   -0.46718E-04  7782   0.767E-02    0.912E-02
RMM:   6    -0.782713385135E+02    0.11860E-03   -0.20660E-04  5971   0.483E-02    0.685E-02
RMM:   7    -0.782713113390E+02    0.27175E-04   -0.27796E-04  6607   0.687E-02
  18 F= -.78271311E+02 E0= -.78200604E+02  d E =-.293598E-02
 trial-energy change:   -0.002936  1 .order   -0.003126   -0.010040    0.003788
 step:   1.9333(harm=  1.9333)  dis= 0.00542  next Energy=   -78.272020 (dE=-0.364E-02)
 bond charge predicted
       N       E                     dE             d eps       ncg     rms          rms(c)
DAV:   1    -0.782719173775E+02   -0.57886E-03   -0.14873E-01 10430   0.951E-01    0.108E-01
RMM:   2    -0.782840013820E+02   -0.12084E-01   -0.34495E-03  8613   0.178E-01    0.934E-01
RMM:   3    -0.782726264730E+02    0.11375E-01   -0.94255E-04  8464   0.916E-02    0.183E-01
RMM:   4    -0.782720148943E+02    0.61158E-03   -0.32379E-04  6994   0.670E-02    0.749E-02
RMM:   5    -0.782719367064E+02    0.78188E-04   -0.61370E-05  5563   0.384E-02
  19 F= -.78271937E+02 E0= -.78201121E+02  d E =-.356135E-02
 curvature:  -1.43 expect dE=-0.289E-02 dE for cont linesearch -0.748E-05
 trial: gam= 0.54221 g(F)=  0.202E-02 g(S)=  0.000E+00 ort =-0.171E-03 (trialstep = 0.252E+01)
 search vector abs. value=  0.348E-02
 bond charge predicted
       N       E                     dE             d eps       ncg     rms          rms(c)
DAV:   1    -0.782742247559E+02   -0.22099E-02   -0.12542E+00 10010   0.250E+00    0.974E-02
RMM:   2    -0.782806050586E+02   -0.63803E-02   -0.13923E-02  8607   0.397E-01    0.622E-01
RMM:   3    -0.782762316539E+02    0.43734E-02   -0.17371E-03  9055   0.135E-01    0.198E-01
RMM:   4    -0.782756169898E+02    0.61466E-03   -0.28256E-04  6721   0.590E-02    0.816E-02
RMM:   5    -0.782755112857E+02    0.10570E-03   -0.71274E-05  5548   0.372E-02    0.507E-02
RMM:   6    -0.782754875554E+02    0.23730E-04   -0.53869E-05  5494   0.294E-02
  20 F= -.78275488E+02 E0= -.78204831E+02  d E =-.355085E-02
 trial-energy change:   -0.003551  1 .order   -0.003554   -0.004860   -0.002248
 step:   4.6827(harm=  4.6827)  dis= 0.00536  next Energy=   -78.276458 (dE=-0.452E-02)
 bond charge predicted
       N       E                     dE             d eps       ncg     rms          rms(c)
DAV:   1    -0.782755566376E+02   -0.45352E-04   -0.93546E-01  8610   0.217E+00    0.934E-02
RMM:   2    -0.782820106371E+02   -0.64540E-02   -0.10560E-02  8607   0.347E-01    0.632E-01
RMM:   3    -0.782770922854E+02    0.49184E-02   -0.13671E-03  8864   0.117E-01    0.186E-01
RMM:   4    -0.782765253925E+02    0.56689E-03   -0.27086E-04  6642   0.592E-02    0.633E-02
RMM:   5    -0.782764777704E+02    0.47622E-04   -0.60884E-05  5498   0.340E-02
  21 F= -.78276478E+02 E0= -.78205880E+02  d E =-.454106E-02
 curvature:  -4.21 expect dE=-0.552E-03 dE for cont linesearch -0.825E-05
 trial: gam= 0.00255 g(F)=  0.131E-03 g(S)=  0.000E+00 ort =-0.825E-04 (trialstep = 0.295E+01)
 search vector abs. value=  0.131E-03
 bond charge predicted
       N       E                     dE             d eps       ncg     rms          rms(c)
DAV:   1    -0.782766595971E+02   -0.13420E-03   -0.62619E-02  9135   0.601E-01    0.549E-02
RMM:   2    -0.782789728920E+02   -0.23133E-02   -0.11631E-03  8552   0.111E-01    0.412E-01
RMM:   3    -0.782769966624E+02    0.19762E-02   -0.24411E-04  6481   0.535E-02    0.123E-01
RMM:   4    -0.782767319619E+02    0.26470E-03   -0.92786E-05  5684   0.428E-02    0.350E-02
RMM:   5    -0.782767159899E+02    0.15972E-04   -0.31264E-05  5476   0.260E-02
  22 F= -.78276716E+02 E0= -.78206061E+02  d E =-.238219E-03
 trial-energy change:   -0.000238  1 .order   -0.000262   -0.000386   -0.000137
 step:   4.5819(harm=  4.5819)  dis= 0.00165  next Energy=   -78.276777 (dE=-0.300E-03)
 bond charge predicted
       N       E                     dE             d eps       ncg     rms          rms(c)
DAV:   1    -0.782767624119E+02   -0.30450E-04   -0.19546E-02  9660   0.336E-01    0.298E-02
RMM:   2    -0.782780630328E+02   -0.13006E-02   -0.34929E-04  7054   0.601E-02    0.305E-01
RMM:   3    -0.782768384486E+02    0.12246E-02   -0.10153E-04  5667   0.405E-02    0.502E-02
RMM:   4    -0.782767840968E+02    0.54352E-04   -0.37881E-05  5550   0.282E-02
  23 F= -.78276784E+02 E0= -.78206052E+02  d E =-.306326E-03
 curvature:  -2.29 expect dE=-0.199E-03 dE for cont linesearch -0.485E-05
 trial: gam= 0.53693 g(F)=  0.870E-04 g(S)=  0.000E+00 ort = 0.166E-04 (trialstep = 0.300E+01)
 search vector abs. value=  0.142E-03
 reached required accuracy - stopping structural energy minimisation
 writing wavefunctions
