 running on   38 total cores
 distrk:  each k-point on   38 cores,    1 groups
 distr:  one band on    1 cores,   38 groups
 using from now: INCAR     
 vasp.5.4.1 24Jun15 (build Oct 26 2018 17:15:27) complex                        
  
 POSCAR found type information on POSCAR  Pt
 POSCAR found :  1 types and      15 ions
 scaLAPACK will be used

 ----------------------------------------------------------------------------- 
|                                                                             |
|           W    W    AA    RRRRR   N    N  II  N    N   GGGG   !!!           |
|           W    W   A  A   R    R  NN   N  II  NN   N  G    G  !!!           |
|           W    W  A    A  R    R  N N  N  II  N N  N  G       !!!           |
|           W WW W  AAAAAA  RRRRR   N  N N  II  N  N N  G  GGG   !            |
|           WW  WW  A    A  R   R   N   NN  II  N   NN  G    G                |
|           W    W  A    A  R    R  N    N  II  N    N   GGGG   !!!           |
|                                                                             |
|      For optimal performance we recommend to set                            |
|        NCORE= 4 - approx SQRT( number of cores)                             |
|      NCORE specifies how many cores store one orbital (NPAR=cpu/NCORE).     |
|      This setting can  greatly improve the performance of VASP for DFT.     |
|      The default, NPAR=number of cores might be grossly inefficient         |
|      on modern multi-core architectures or massively parallel machines.     |
|      Do your own testing !!!!                                               |
|      Unfortunately you need to use the default for GW and RPA calculations. |
|      (for HF NCORE is supported but not extensively tested yet)             |
|                                                                             |
 ----------------------------------------------------------------------------- 

 LDA part: xc-table for Ceperly-Alder, standard interpolation
 POSCAR, INCAR and KPOINTS ok, starting setup
 WARNING: small aliasing (wrap around) errors must be expected
 FFT: planning ...
 WAVECAR not read
 WARNING: random wavefunctions but no delay for mixing, default for NELMDL
 entering main loop
       N       E                     dE             d eps       ncg     rms          rms(c)
DAV:   1     0.145949043667E+04    0.14595E+04   -0.61240E+04  7296   0.113E+03
DAV:   2     0.472362486501E+01   -0.14548E+04   -0.12543E+04  7296   0.369E+02
DAV:   3    -0.886157502955E+02   -0.93339E+02   -0.86121E+02  9728   0.887E+01
DAV:   4    -0.905958363060E+02   -0.19801E+01   -0.19759E+01  8360   0.176E+01
DAV:   5    -0.906444904152E+02   -0.48654E-01   -0.48646E-01 10754   0.201E+00    0.144E+01
DAV:   6    -0.942249848303E+02   -0.35805E+01   -0.44781E+01 11704   0.339E+01    0.201E+01
DAV:   7    -0.910290860282E+02    0.31959E+01   -0.51815E+01 12312   0.387E+01    0.138E+01
DAV:   8    -0.108205616233E+03   -0.17177E+02   -0.12008E+02 13566   0.573E+01    0.228E+01
DAV:   9    -0.883816249213E+02    0.19824E+02   -0.66245E+01 12996   0.397E+01    0.119E+01
DAV:  10    -0.859224910278E+02    0.24591E+01   -0.51754E+00 11248   0.136E+01    0.606E+00
DAV:  11    -0.855606483915E+02    0.36184E+00   -0.74790E-01 11818   0.447E+00    0.417E+00
DAV:  12    -0.853873474984E+02    0.17330E+00   -0.33031E-01 11476   0.267E+00    0.271E+00
DAV:  13    -0.853096752051E+02    0.77672E-01   -0.16430E-01 11590   0.227E+00    0.190E+00
DAV:  14    -0.852815666747E+02    0.28109E-01   -0.13759E-01 11552   0.202E+00    0.149E+00
DAV:  15    -0.852757906290E+02    0.57760E-02   -0.14558E-01 11476   0.211E+00    0.151E+00
DAV:  16    -0.852477781194E+02    0.28013E-01   -0.95376E-02 11020   0.155E+00    0.411E-01
DAV:  17    -0.852504697802E+02   -0.26917E-02   -0.29364E-02 11818   0.887E-01    0.660E-01
DAV:  18    -0.852459866665E+02    0.44831E-02   -0.37775E-02 10906   0.770E-01    0.328E-01
DAV:  19    -0.852447068923E+02    0.12798E-02   -0.36512E-03 11096   0.327E-01    0.167E-01
DAV:  20    -0.852443542172E+02    0.35268E-03   -0.14233E-03 11438   0.204E-01    0.134E-01
DAV:  21    -0.852439806462E+02    0.37357E-03   -0.22144E-03 11286   0.188E-01    0.905E-02
DAV:  22    -0.852438358885E+02    0.14476E-03   -0.13905E-04  9956   0.636E-02    0.856E-02
DAV:  23    -0.852437130706E+02    0.12282E-03   -0.59197E-04  9500   0.922E-02    0.293E-02
DAV:  24    -0.852437482490E+02   -0.35178E-04   -0.49108E-05  7068   0.284E-02    0.127E-02
DAV:  25    -0.852438114141E+02   -0.63165E-04   -0.12257E-05  6612   0.185E-02    0.904E-03
DAV:  26    -0.852439824518E+02   -0.17104E-03   -0.40083E-05  7030   0.192E-02    0.122E-02
DAV:  27    -0.852441301726E+02   -0.14772E-03   -0.44675E-05  7334   0.140E-02    0.484E-03
DAV:  28    -0.852443139749E+02   -0.18380E-03   -0.65538E-04  8094   0.704E-02    0.105E-01
DAV:  29    -0.852443113643E+02    0.26106E-05   -0.13886E-05  7448   0.136E-02
   1 F= -.85244311E+02 E0= -.85243384E+02  d E =-.852443E+02
 curvature:   0.00 expect dE= 0.000E+00 dE for cont linesearch  0.000E+00
 trial: gam= 0.00000 g(F)=  0.537E-01 g(S)=  0.000E+00 ort = 0.000E+00 (trialstep = 0.100E+01)
 search vector abs. value=  0.537E-01
 bond charge predicted
       N       E                     dE             d eps       ncg     rms          rms(c)
DAV:   1    -0.852932852092E+02   -0.48971E-01   -0.31308E+00  7296   0.394E+00    0.230E-01
DAV:   2    -0.853358857451E+02   -0.42601E-01   -0.24279E-01 11894   0.172E+00    0.171E+00
DAV:   3    -0.853173119270E+02    0.18574E-01   -0.40091E-01 12198   0.201E+00    0.132E+00
DAV:   4    -0.852975796070E+02    0.19732E-01   -0.88619E-02 11932   0.110E+00    0.229E-01
DAV:   5    -0.852967114944E+02    0.86811E-03   -0.28931E-03 10222   0.269E-01    0.113E-01
DAV:   6    -0.852965608174E+02    0.15068E-03   -0.58064E-04 11514   0.143E-01    0.815E-02
DAV:   7    -0.852966615477E+02   -0.10073E-03   -0.12328E-03 11590   0.175E-01    0.123E-01
DAV:   8    -0.852964640736E+02    0.19747E-03   -0.90739E-04 11666   0.155E-01    0.438E-02
DAV:   9    -0.852964535764E+02    0.10497E-04   -0.12885E-04  9690   0.599E-02    0.332E-02
DAV:  10    -0.852964424633E+02    0.11113E-04   -0.89712E-05  6460   0.386E-02    0.152E-02
DAV:  11    -0.852964395219E+02    0.29414E-05   -0.17287E-05  6840   0.260E-02
   2 F= -.85296440E+02 E0= -.85295499E+02  d E =-.521282E-01
 ZBRENT: can't locate minimum, use default step
 trial-energy change:   -0.052128  1 .order   -0.052133   -0.053714   -0.050551
 step:   4.0000(harm= 16.9813)  dis= 0.04200  next Energy=   -85.700381 (dE=-0.456E+00)
 bond charge predicted
       N       E                     dE             d eps       ncg     rms          rms(c)
DAV:   1    -0.853963577885E+02   -0.99915E-01   -0.28121E+01  7296   0.119E+01    0.784E-01
DAV:   2    -0.857132566141E+02   -0.31690E+00   -0.17617E+00 11970   0.545E+00    0.422E+00
DAV:   3    -0.856994224906E+02    0.13834E-01   -0.33323E+00 12578   0.642E+00    0.449E+00
DAV:   4    -0.854435086449E+02    0.25591E+00   -0.12829E+00 12502   0.404E+00    0.652E-01
DAV:   5    -0.854356334272E+02    0.78752E-02   -0.42269E-02 10602   0.937E-01    0.383E-01
DAV:   6    -0.854340085420E+02    0.16249E-02   -0.87870E-03 11970   0.482E-01    0.269E-01
DAV:   7    -0.854346441638E+02   -0.63562E-03   -0.12082E-02 11134   0.555E-01    0.374E-01
DAV:   8    -0.854326650445E+02    0.19791E-02   -0.88511E-03 10868   0.476E-01    0.123E-01
DAV:   9    -0.854325355464E+02    0.12950E-03   -0.14029E-03 11400   0.183E-01    0.758E-02
DAV:  10    -0.854324700590E+02    0.65487E-04   -0.51801E-04 11856   0.125E-01    0.593E-02
DAV:  11    -0.854324215171E+02    0.48542E-04   -0.21779E-04 10488   0.771E-02    0.253E-02
DAV:  12    -0.854324064863E+02    0.15031E-04   -0.68465E-05  9348   0.397E-02    0.971E-03
DAV:  13    -0.854324078046E+02   -0.13182E-05   -0.16590E-05  6954   0.229E-02
   3 F= -.85432408E+02 E0= -.85431362E+02  d E =-.188096E+00
 curvature:  -2.89 expect dE=-0.876E-01 dE for cont linesearch -0.851E-01
 ZBRENT: increasing intervall
 opt :  10.0000  next Energy=   -85.606451 (dE=-0.362E+00)
 bond charge predicted
       N       E                     dE             d eps       ncg     rms          rms(c)
DAV:   1    -0.854011044561E+02    0.31302E-01   -0.11238E+02  7296   0.241E+01    0.183E+00
DAV:   2    -0.872189514164E+02   -0.18178E+01   -0.10468E+01 11932   0.141E+01    0.831E+00
DAV:   3    -0.866338146506E+02    0.58514E+00   -0.13053E+01 13034   0.153E+01    0.758E+00
DAV:   4    -0.856578431107E+02    0.97597E+00   -0.38959E+00 12540   0.867E+00    0.146E+00
DAV:   5    -0.856275801680E+02    0.30263E-01   -0.23147E-01 10944   0.217E+00    0.893E-01
DAV:   6    -0.856196342667E+02    0.79459E-02   -0.53315E-02 11818   0.111E+00    0.709E-01
DAV:   7    -0.856190052736E+02    0.62899E-03   -0.56539E-02 11400   0.115E+00    0.771E-01
DAV:   8    -0.856133576014E+02    0.56477E-02   -0.40378E-02 10792   0.931E-01    0.544E-01
DAV:   9    -0.856106942052E+02    0.26634E-02   -0.11005E-02 11514   0.576E-01    0.311E-01
DAV:  10    -0.856097710164E+02    0.92319E-03   -0.36701E-03 11742   0.338E-01    0.183E-01
DAV:  11    -0.856093155164E+02    0.45550E-03   -0.16795E-03 11666   0.215E-01    0.722E-02
DAV:  12    -0.856092115721E+02    0.10394E-03   -0.67784E-04 11286   0.118E-01    0.465E-02
DAV:  13    -0.856091981439E+02    0.13428E-04   -0.21892E-04 10678   0.820E-02    0.355E-02
DAV:  14    -0.856091801952E+02    0.17949E-04   -0.92640E-05  6954   0.521E-02    0.173E-02
DAV:  15    -0.856091803878E+02   -0.19255E-06   -0.15621E-05  5700   0.188E-02
   4 F= -.85609180E+02 E0= -.85608018E+02  d E =-.364869E+00
 curvature:  -5.91 expect dE=-0.680E-01 dE for cont linesearch -0.405E-01
 ZBRENT: increasing intervall
 opt :  22.0000  next Energy=   -85.592206 (dE=-0.348E+00)
 bond charge predicted
       N       E                     dE             d eps       ncg     rms          rms(c)
DAV:   1    -0.844366381731E+02    0.11725E+01   -0.45514E+02  7296   0.504E+01    0.397E+00
DAV:   2    -0.937922782849E+02   -0.93556E+01   -0.50737E+01 12008   0.343E+01    0.147E+01
DAV:   3    -0.887028431879E+02    0.50894E+01   -0.43808E+01 13224   0.327E+01    0.112E+01
DAV:   4    -0.856920674607E+02    0.30108E+01   -0.84341E+00 11932   0.155E+01    0.202E+00
DAV:   5    -0.856463212504E+02    0.45746E-01   -0.42228E-01  9082   0.273E+00    0.184E+00
DAV:   6    -0.856210259544E+02    0.25295E-01   -0.11293E-01 11286   0.175E+00    0.131E+00
DAV:   7    -0.855984731220E+02    0.22553E-01   -0.17442E-01 11818   0.190E+00    0.114E+00
DAV:   8    -0.855942977332E+02    0.41754E-02   -0.26901E-01 11970   0.233E+00    0.120E+00
DAV:   9    -0.855786402937E+02    0.15657E-01   -0.60282E-02 11590   0.124E+00    0.444E-01
DAV:  10    -0.855764868484E+02    0.21534E-02   -0.10174E-02 11324   0.585E-01    0.321E-01
DAV:  11    -0.855747292391E+02    0.17576E-02   -0.93650E-03 12008   0.429E-01    0.141E-01
DAV:  12    -0.855745507409E+02    0.17850E-03   -0.26356E-03 10716   0.283E-01    0.131E-01
DAV:  13    -0.855743262548E+02    0.22449E-03   -0.12099E-03 11438   0.186E-01    0.825E-02
DAV:  14    -0.855742192258E+02    0.10703E-03   -0.52680E-04 11248   0.123E-01    0.241E-02
DAV:  15    -0.855742173768E+02    0.18490E-05   -0.67281E-05  8132   0.390E-02
   5 F= -.85574217E+02 E0= -.85573796E+02  d E =-.329906E+00
 curvature:   2.48 expect dE= 0.103E+00 dE for cont linesearch  0.326E-01
 ZBRENT: bracketing found
 ZBRENT: interpolating
 opt :  15.0277  next Energy=   -85.657402 (dE=-0.413E+00)
 bond charge predicted
       N       E                     dE             d eps       ncg     rms          rms(c)
DAV:   1    -0.853386245839E+02    0.23559E+00   -0.15155E+02  7296   0.283E+01    0.167E+00
DAV:   2    -0.878793242917E+02   -0.25407E+01   -0.13454E+01 11818   0.121E+01    0.127E+01
DAV:   3    -0.861510814975E+02    0.17282E+01   -0.15007E+01 11438   0.139E+01    0.582E+00
DAV:   4    -0.857657913799E+02    0.38529E+00   -0.30036E+00 11628   0.642E+00    0.241E+00
DAV:   5    -0.856924992833E+02    0.73292E-01   -0.32843E-01 11096   0.263E+00    0.117E+00
DAV:   6    -0.856787014126E+02    0.13798E-01   -0.47138E-02 11172   0.120E+00    0.865E-01
DAV:   7    -0.856733485928E+02    0.53528E-02   -0.42846E-02 10830   0.109E+00    0.828E-01
DAV:   8    -0.856632507033E+02    0.10098E-01   -0.46269E-02 10640   0.111E+00    0.384E-01
DAV:   9    -0.856631899628E+02    0.60740E-04   -0.21794E-02  9880   0.770E-01    0.345E-01
DAV:  10    -0.856612816434E+02    0.19083E-02   -0.62951E-03  9994   0.485E-01    0.988E-02
DAV:  11    -0.856611971235E+02    0.84520E-04   -0.10592E-03 11172   0.173E-01    0.930E-02
DAV:  12    -0.856610278556E+02    0.16927E-03   -0.71576E-04 11362   0.147E-01    0.397E-02
DAV:  13    -0.856610025244E+02    0.25331E-04   -0.19483E-04 10070   0.740E-02    0.234E-02
DAV:  14    -0.856609939119E+02    0.86125E-05   -0.38555E-05  6954   0.344E-02
   6 F= -.85660994E+02 E0= -.85660084E+02  d E =-.416683E+00
 curvature:  -3.66 expect dE=-0.402E-01 dE for cont linesearch -0.799E-04
 trial: gam= 0.18408 g(F)=  0.110E-01 g(S)=  0.000E+00 ort = 0.108E-02 (trialstep = 0.381E+01)
 search vector abs. value=  0.132E-01
 bond charge predicted
       N       E                     dE             d eps       ncg     rms          rms(c)
DAV:   1    -0.856833902553E+02   -0.22388E-01   -0.10878E+01  7296   0.751E+00    0.331E-01
DAV:   2    -0.857473146404E+02   -0.63924E-01   -0.41871E-01 12008   0.236E+00    0.201E+00
DAV:   3    -0.857078188725E+02    0.39496E-01   -0.44808E-01 12008   0.222E+00    0.813E-01
DAV:   4    -0.856995320518E+02    0.82868E-02   -0.36255E-02 11248   0.872E-01    0.369E-01
DAV:   5    -0.856982838649E+02    0.12482E-02   -0.79629E-03 11020   0.405E-01    0.251E-01
DAV:   6    -0.856976015670E+02    0.68230E-03   -0.26421E-03 11134   0.250E-01    0.166E-01
DAV:   7    -0.856975433420E+02    0.58225E-04   -0.31373E-03 11172   0.288E-01    0.186E-01
DAV:   8    -0.856970475757E+02    0.49577E-03   -0.28428E-03 11134   0.278E-01    0.704E-02
DAV:   9    -0.856969916237E+02    0.55952E-04   -0.66326E-04 11286   0.150E-01    0.418E-02
DAV:  10    -0.856969638418E+02    0.27782E-04   -0.15282E-04  9310   0.687E-02    0.263E-02
DAV:  11    -0.856969538129E+02    0.10029E-04   -0.41965E-05  6840   0.399E-02    0.154E-02
DAV:  12    -0.856969517081E+02    0.21048E-05   -0.38456E-05  7904   0.264E-02
   7 F= -.85696952E+02 E0= -.85696058E+02  d E =-.359578E-01
 trial-energy change:   -0.035958  1 .order   -0.035738   -0.042507   -0.028969
 step:  10.2546(harm= 11.9485)  dis= 0.04888  next Energy=   -85.722568 (dE=-0.616E-01)
 bond charge predicted
       N       E                     dE             d eps       ncg     rms          rms(c)
DAV:   1    -0.856815471963E+02    0.15407E-01   -0.31196E+01  7296   0.128E+01    0.589E-01
DAV:   2    -0.858080777396E+02   -0.12653E+00   -0.97502E-01 12084   0.394E+00    0.255E+00
DAV:   3    -0.857812196349E+02    0.26858E-01   -0.11471E+00 11742   0.353E+00    0.186E+00
DAV:   4    -0.857373707954E+02    0.43849E-01   -0.22745E-01 11590   0.186E+00    0.692E-01
DAV:   5    -0.857312687627E+02    0.61020E-02   -0.27422E-02 11362   0.792E-01    0.388E-01
DAV:   6    -0.857297926736E+02    0.14761E-02   -0.57202E-03 11172   0.377E-01    0.287E-01
DAV:   7    -0.857291726864E+02    0.61999E-03   -0.75402E-03 11058   0.452E-01    0.287E-01
DAV:   8    -0.857277743824E+02    0.13983E-02   -0.61377E-03 10678   0.434E-01    0.837E-02
DAV:   9    -0.857278002318E+02   -0.25849E-04   -0.12906E-03 10526   0.224E-01    0.826E-02
DAV:  10    -0.857276858257E+02    0.11441E-03   -0.41445E-04 10830   0.130E-01    0.307E-02
DAV:  11    -0.857276780255E+02    0.78001E-05   -0.96651E-05  9272   0.602E-02
   8 F= -.85727678E+02 E0= -.85727007E+02  d E =-.666841E-01
 curvature:  -6.75 expect dE=-0.194E-01 dE for cont linesearch -0.138E-02
 ZBRENT: extrapolating
 opt :  12.0249  next Energy=   -85.729129 (dE=-0.681E-01)
 bond charge predicted
       N       E                     dE             d eps       ncg     rms          rms(c)
DAV:   1    -0.857262959649E+02    0.13899E-02   -0.23518E+00  7296   0.349E+00    0.134E-01
DAV:   2    -0.857313067418E+02   -0.50108E-02   -0.43276E-02 11742   0.777E-01    0.376E-01
DAV:   3    -0.857334835652E+02   -0.21768E-02   -0.47184E-02 11856   0.759E-01    0.543E-01
DAV:   4    -0.857294661038E+02    0.40175E-02   -0.18865E-02 11628   0.510E-01    0.125E-01
DAV:   5    -0.857292954381E+02    0.17067E-03   -0.98782E-04 11210   0.149E-01    0.935E-02
DAV:   6    -0.857292173284E+02    0.78110E-04   -0.38933E-04 11514   0.100E-01    0.720E-02
DAV:   7    -0.857291767026E+02    0.40626E-04   -0.58773E-04 10070   0.122E-01    0.658E-02
DAV:   8    -0.857291003740E+02    0.76329E-04   -0.30646E-04 10184   0.109E-01    0.147E-02
DAV:   9    -0.857291035119E+02   -0.31379E-05   -0.47876E-05  6916   0.430E-02
   9 F= -.85729104E+02 E0= -.85728480E+02  d E =-.681096E-01
 curvature:  -7.12 expect dE=-0.267E-01 dE for cont linesearch -0.599E-07
 trial: gam= 0.36664 g(F)=  0.375E-02 g(S)=  0.000E+00 ort =-0.105E-04 (trialstep = 0.545E+01)
 search vector abs. value=  0.552E-02
 bond charge predicted
       N       E                     dE             d eps       ncg     rms          rms(c)
DAV:   1    -0.857325159934E+02   -0.34156E-02   -0.93074E+00  7296   0.688E+00    0.316E-01
DAV:   2    -0.858767760690E+02   -0.14426E+00   -0.87205E-01 11704   0.317E+00    0.321E+00
DAV:   3    -0.857516733501E+02    0.12510E+00   -0.92118E-01 12160   0.305E+00    0.572E-01
DAV:   4    -0.857472023211E+02    0.44710E-02   -0.22679E-02 11020   0.777E-01    0.378E-01
DAV:   5    -0.857454344555E+02    0.17679E-02   -0.78878E-03 10944   0.440E-01    0.216E-01
DAV:   6    -0.857449696439E+02    0.46481E-03   -0.18006E-03 11210   0.222E-01    0.152E-01
DAV:   7    -0.857448146136E+02    0.15503E-03   -0.21566E-03 10678   0.237E-01    0.151E-01
DAV:   8    -0.857444750872E+02    0.33953E-03   -0.15606E-03 10982   0.230E-01    0.536E-02
DAV:   9    -0.857444593393E+02    0.15748E-04   -0.35639E-04 11476   0.111E-01    0.441E-02
DAV:  10    -0.857444320727E+02    0.27267E-04   -0.89271E-05  7486   0.545E-02    0.181E-02
DAV:  11    -0.857444270483E+02    0.50243E-05   -0.38223E-05  6954   0.296E-02
  10 F= -.85744427E+02 E0= -.85743845E+02  d E =-.153235E-01
 trial-energy change:   -0.015324  1 .order   -0.015320   -0.020419   -0.010221
 step:  10.9106(harm= 10.9106)  dis= 0.01987  next Energy=   -85.749545 (dE=-0.204E-01)
 bond charge predicted
       N       E                     dE             d eps       ncg     rms          rms(c)
DAV:   1    -0.857373013097E+02    0.71308E-02   -0.93466E+00  7296   0.689E+00    0.313E-01
DAV:   2    -0.858661904118E+02   -0.12889E+00   -0.78433E-01 11856   0.305E+00    0.301E+00
DAV:   3    -0.857565074392E+02    0.10968E+00   -0.83412E-01 12046   0.292E+00    0.575E-01
DAV:   4    -0.857520571274E+02    0.44503E-02   -0.22029E-02 11248   0.762E-01    0.371E-01
DAV:   5    -0.857503374671E+02    0.17197E-02   -0.74908E-03 10830   0.430E-01    0.213E-01
DAV:   6    -0.857498897492E+02    0.44772E-03   -0.17788E-03 11172   0.223E-01    0.154E-01
DAV:   7    -0.857497223636E+02    0.16739E-03   -0.22213E-03 11096   0.241E-01    0.151E-01
DAV:   8    -0.857493835679E+02    0.33880E-03   -0.15272E-03 11134   0.231E-01    0.521E-02
DAV:   9    -0.857493731537E+02    0.10414E-04   -0.34113E-04 11590   0.109E-01    0.464E-02
DAV:  10    -0.857493447775E+02    0.28376E-04   -0.91448E-05  7942   0.566E-02    0.203E-02
DAV:  11    -0.857493392250E+02    0.55525E-05   -0.33452E-05  6650   0.327E-02
  11 F= -.85749339E+02 E0= -.85748732E+02  d E =-.202357E-01
 curvature:  -8.03 expect dE=-0.678E-02 dE for cont linesearch -0.209E-05
 trial: gam= 0.21574 g(F)=  0.844E-03 g(S)=  0.000E+00 ort =-0.378E-04 (trialstep = 0.654E+01)
 search vector abs. value=  0.108E-02
 bond charge predicted
       N       E                     dE             d eps       ncg     rms          rms(c)
DAV:   1    -0.857496103924E+02   -0.26561E-03   -0.27038E+00  7296   0.368E+00    0.178E-01
DAV:   2    -0.857920505698E+02   -0.42440E-01   -0.24477E-01 11856   0.168E+00    0.167E+00
DAV:   3    -0.857557874637E+02    0.36263E-01   -0.26536E-01 11704   0.171E+00    0.403E-01
DAV:   4    -0.857533409567E+02    0.24465E-02   -0.11145E-02 11248   0.532E-01    0.192E-01
DAV:   5    -0.857529240428E+02    0.41691E-03   -0.23639E-03 10146   0.247E-01    0.127E-01
DAV:   6    -0.857527357514E+02    0.18829E-03   -0.46461E-04 11514   0.107E-01    0.799E-02
DAV:   7    -0.857526770505E+02    0.58701E-04   -0.63248E-04 10412   0.124E-01    0.740E-02
DAV:   8    -0.857525908461E+02    0.86204E-04   -0.33832E-04 10564   0.118E-01    0.226E-02
DAV:   9    -0.857525897792E+02    0.10668E-05   -0.71015E-05  7828   0.542E-02
  12 F= -.85752590E+02 E0= -.85751914E+02  d E =-.325055E-02
 trial-energy change:   -0.003251  1 .order   -0.003190   -0.005466   -0.000914
 step:   7.7420(harm=  7.8556)  dis= 0.01421  next Energy=   -85.752674 (dE=-0.333E-02)
 bond charge predicted
       N       E                     dE             d eps       ncg     rms          rms(c)
DAV:   1    -0.857525769658E+02    0.13880E-04   -0.90753E-02  7296   0.675E-01    0.371E-02
DAV:   2    -0.857554018299E+02   -0.28249E-02   -0.14429E-02 11818   0.409E-01    0.433E-01
DAV:   3    -0.857527807104E+02    0.26211E-02   -0.15185E-02 12350   0.423E-01    0.672E-02
DAV:   4    -0.857527086344E+02    0.72076E-04   -0.40229E-04 10716   0.103E-01    0.394E-02
DAV:   5    -0.857526911452E+02    0.17489E-04   -0.10368E-04  7828   0.541E-02    0.260E-02
DAV:   6    -0.857526831198E+02    0.80254E-05   -0.24435E-05  6802   0.276E-02
  13 F= -.85752683E+02 E0= -.85751998E+02  d E =-.334389E-02
 curvature:  -5.06 expect dE=-0.132E-02 dE for cont linesearch -0.303E-05
 trial: gam= 0.26998 g(F)=  0.261E-03 g(S)=  0.000E+00 ort = 0.255E-04 (trialstep = 0.678E+01)
 search vector abs. value=  0.353E-03
 bond charge predicted
       N       E                     dE             d eps       ncg     rms          rms(c)
DAV:   1    -0.857530762073E+02   -0.38506E-03   -0.92661E-01  7296   0.218E+00    0.859E-02
DAV:   2    -0.857611340521E+02   -0.80578E-02   -0.47791E-02 11856   0.715E-01    0.719E-01
DAV:   3    -0.857547558230E+02    0.63782E-02   -0.48534E-02 11324   0.769E-01    0.190E-01
DAV:   4    -0.857542972075E+02    0.45862E-03   -0.32133E-03  9880   0.255E-01    0.976E-02
DAV:   5    -0.857541557622E+02    0.14145E-03   -0.40208E-04 10716   0.103E-01    0.531E-02
DAV:   6    -0.857541268011E+02    0.28961E-04   -0.13303E-04 11438   0.640E-02    0.453E-02
DAV:   7    -0.857541050433E+02    0.21758E-04   -0.26649E-04 10146   0.829E-02    0.395E-02
DAV:   8    -0.857540807175E+02    0.24326E-04   -0.88304E-05  7220   0.605E-02    0.108E-02
DAV:   9    -0.857540810234E+02   -0.30590E-06   -0.17161E-05  5434   0.215E-02
  14 F= -.85754081E+02 E0= -.85753373E+02  d E =-.139790E-02
 trial-energy change:   -0.001398  1 .order   -0.001418   -0.001813   -0.001022
 step:  15.5449(harm= 15.5449)  dis= 0.01949  next Energy=   -85.754762 (dE=-0.208E-02)
 bond charge predicted
       N       E                     dE             d eps       ncg     rms          rms(c)
DAV:   1    -0.857530874566E+02    0.99326E-03   -0.15458E+00  7296   0.281E+00    0.109E-01
DAV:   2    -0.857636305016E+02   -0.10543E-01   -0.65152E-02 11666   0.838E-01    0.810E-01
DAV:   3    -0.857560057565E+02    0.76247E-02   -0.66102E-02 11400   0.896E-01    0.260E-01
DAV:   4    -0.857551781845E+02    0.82757E-03   -0.58605E-03  9880   0.332E-01    0.125E-01
DAV:   5    -0.857549374817E+02    0.24070E-03   -0.66122E-04 10830   0.129E-01    0.654E-02
DAV:   6    -0.857548946313E+02    0.42850E-04   -0.22589E-04 10640   0.831E-02    0.572E-02
DAV:   7    -0.857548418043E+02    0.52827E-04   -0.36482E-04 10184   0.978E-02    0.360E-02
DAV:   8    -0.857548235464E+02    0.18258E-04   -0.93092E-05  8740   0.639E-02    0.142E-02
DAV:   9    -0.857548231808E+02    0.36562E-06   -0.23121E-05  6802   0.262E-02
  15 F= -.85754823E+02 E0= -.85754088E+02  d E =-.214006E-02
 curvature: -10.27 expect dE=-0.853E-03 dE for cont linesearch -0.163E-04
 trial: gam= 0.28161 g(F)=  0.830E-04 g(S)=  0.000E+00 ort = 0.237E-04 (trialstep = 0.853E+01)
 search vector abs. value=  0.124E-03
 bond charge predicted
       N       E                     dE             d eps       ncg     rms          rms(c)
DAV:   1    -0.857547587221E+02    0.64824E-04   -0.51855E-01  7296   0.163E+00    0.550E-02
DAV:   2    -0.857555180452E+02   -0.75932E-03   -0.73558E-03 10716   0.308E-01    0.906E-02
DAV:   3    -0.857562543803E+02   -0.73634E-03   -0.62189E-03 11704   0.278E-01    0.251E-01
DAV:   4    -0.857554168290E+02    0.83755E-03   -0.41433E-03 11096   0.221E-01    0.457E-02
DAV:   5    -0.857553892522E+02    0.27577E-04   -0.76817E-05  8360   0.404E-02    0.365E-02
DAV:   6    -0.857553959004E+02   -0.66481E-05   -0.12080E-04  7220   0.567E-02    0.494E-02
DAV:   7    -0.857553709355E+02    0.24965E-04   -0.27391E-04 11096   0.780E-02    0.323E-02
DAV:   8    -0.857553543759E+02    0.16560E-04   -0.73184E-05  6992   0.519E-02    0.101E-02
DAV:   9    -0.857553550558E+02   -0.67993E-06   -0.21162E-05  6536   0.268E-02
  16 F= -.85755355E+02 E0= -.85754621E+02  d E =-.531875E-03
 trial-energy change:   -0.000532  1 .order   -0.000530   -0.000766   -0.000294
 step:  13.8455(harm= 13.8455)  dis= 0.00641  next Energy=   -85.755444 (dE=-0.621E-03)
 bond charge predicted
       N       E                     dE             d eps       ncg     rms          rms(c)
DAV:   1    -0.857552355166E+02    0.11886E-03   -0.20073E-01  7296   0.102E+00    0.357E-02
DAV:   2    -0.857555550061E+02   -0.31949E-03   -0.29983E-03 10868   0.194E-01    0.696E-02
DAV:   3    -0.857557997722E+02   -0.24477E-03   -0.27158E-03 10754   0.184E-01    0.152E-01
DAV:   4    -0.857554912049E+02    0.30857E-03   -0.15029E-03  9424   0.135E-01    0.275E-02
DAV:   5    -0.857554801960E+02    0.11009E-04   -0.26891E-05  6802   0.257E-02    0.219E-02
DAV:   6    -0.857554807838E+02   -0.58781E-06   -0.46873E-05  7220   0.388E-02
  17 F= -.85755481E+02 E0= -.85754743E+02  d E =-.657603E-03
 curvature:  -9.60 expect dE=-0.468E-03 dE for cont linesearch -0.226E-05
 trial: gam= 0.57384 g(F)=  0.488E-04 g(S)=  0.000E+00 ort = 0.541E-05 (trialstep = 0.960E+01)
 search vector abs. value=  0.960E-04
 bond charge predicted
       N       E                     dE             d eps       ncg     rms          rms(c)
DAV:   1    -0.857552029204E+02    0.27728E-03   -0.50484E-01  7296   0.161E+00    0.696E-02
DAV:   2    -0.857604679368E+02   -0.52650E-02   -0.28511E-02 11438   0.586E-01    0.574E-01
DAV:   3    -0.857561821277E+02    0.42858E-02   -0.31095E-02 11362   0.617E-01    0.151E-01
DAV:   4    -0.857558983703E+02    0.28376E-03   -0.16968E-03 10792   0.193E-01    0.790E-02
DAV:   5    -0.857558247083E+02    0.73662E-04   -0.29427E-04 10184   0.879E-02    0.496E-02
DAV:   6    -0.857557975472E+02    0.27161E-04   -0.75390E-05  6992   0.501E-02    0.400E-02
DAV:   7    -0.857557786062E+02    0.18941E-04   -0.21683E-04 10032   0.634E-02    0.281E-02
DAV:   8    -0.857557660276E+02    0.12579E-04   -0.61340E-05  6954   0.561E-02    0.103E-02
DAV:   9    -0.857557653509E+02    0.67674E-06   -0.15477E-05  5586   0.216E-02
  18 F= -.85755765E+02 E0= -.85755031E+02  d E =-.284567E-03
 trial-energy change:   -0.000285  1 .order   -0.000303   -0.000498   -0.000109
 step:  12.2739(harm= 12.2739)  dis= 0.00449  next Energy=   -85.755799 (dE=-0.319E-03)
 bond charge predicted
       N       E                     dE             d eps       ncg     rms          rms(c)
DAV:   1    -0.857557210853E+02    0.44942E-04   -0.39137E-02  7448   0.448E-01    0.220E-02
DAV:   2    -0.857562461217E+02   -0.52504E-03   -0.28140E-03 11286   0.188E-01    0.185E-01
DAV:   3    -0.857558015666E+02    0.44456E-03   -0.30560E-03 11248   0.194E-01    0.405E-02
DAV:   4    -0.857557752534E+02    0.26313E-04   -0.12014E-04  6118   0.570E-02    0.193E-02
DAV:   5    -0.857557721176E+02    0.31357E-05   -0.27624E-05  6840   0.292E-02
  19 F= -.85755772E+02 E0= -.85755040E+02  d E =-.291334E-03
 curvature: -11.35 expect dE=-0.122E-03 dE for cont linesearch -0.207E-05
 trial: gam= 0.22101 g(F)=  0.107E-04 g(S)=  0.000E+00 ort =-0.419E-05 (trialstep = 0.101E+02)
 search vector abs. value=  0.136E-04
 bond charge predicted
       N       E                     dE             d eps       ncg     rms          rms(c)
DAV:   1    -0.857557405727E+02    0.34681E-04   -0.79357E-02  7372   0.634E-01    0.253E-02
DAV:   2    -0.857561082073E+02   -0.36763E-03   -0.22956E-03 11248   0.169E-01    0.141E-01
DAV:   3    -0.857558778687E+02    0.23034E-03   -0.21575E-03 10982   0.165E-01    0.518E-02
DAV:   4    -0.857558425785E+02    0.35290E-04   -0.18385E-04  6080   0.609E-02    0.274E-02
DAV:   5    -0.857558346051E+02    0.79735E-05   -0.35342E-05  5472   0.314E-02
  20 F= -.85755835E+02 E0= -.85755108E+02  d E =-.624874E-04
 trial-energy change:   -0.000062  1 .order   -0.000058   -0.000099   -0.000016
 step:  12.0444(harm= 12.0444)  dis= 0.00119  next Energy=   -85.755831 (dE=-0.591E-04)
 bond charge predicted
       N       E                     dE             d eps       ncg     rms          rms(c)
DAV:   1    -0.857558301721E+02    0.12406E-04   -0.28876E-03  7942   0.125E-01    0.143E-02
DAV:   2    -0.857558553682E+02   -0.25196E-04   -0.15860E-04  7334   0.481E-02    0.441E-02
DAV:   3    -0.857558631233E+02   -0.77551E-05   -0.41156E-04  6498   0.726E-02    0.492E-02
DAV:   4    -0.857558306159E+02    0.32507E-04   -0.17236E-04  5548   0.502E-02    0.120E-02
DAV:   5    -0.857558301801E+02    0.43585E-06   -0.17042E-05  5358   0.243E-02
  21 F= -.85755830E+02 E0= -.85755101E+02  d E =-.580625E-04
 curvature:  -8.33 expect dE=-0.578E-04 dE for cont linesearch -0.483E-05
 trial: gam= 0.00000 g(F)=  0.694E-05 g(S)=  0.000E+00 ort =-0.280E-05 (trialstep = 0.105E+02)
 search vector abs. value=  0.694E-05
 reached required accuracy - stopping structural energy minimisation
 writing wavefunctions
