 running on   35 total cores
 distrk:  each k-point on   35 cores,    1 groups
 distr:  one band on    1 cores,   35 groups
 using from now: INCAR     
 vasp.5.4.1 24Jun15 (build Oct 26 2018 17:15:27) complex                        
  
 POSCAR found type information on POSCAR  Pt O  H 
 POSCAR found :  3 types and      14 ions
 scaLAPACK will be used

 ----------------------------------------------------------------------------- 
|                                                                             |
|           W    W    AA    RRRRR   N    N  II  N    N   GGGG   !!!           |
|           W    W   A  A   R    R  NN   N  II  NN   N  G    G  !!!           |
|           W    W  A    A  R    R  N N  N  II  N N  N  G       !!!           |
|           W WW W  AAAAAA  RRRRR   N  N N  II  N  N N  G  GGG   !            |
|           WW  WW  A    A  R   R   N   NN  II  N   NN  G    G                |
|           W    W  A    A  R    R  N    N  II  N    N   GGGG   !!!           |
|                                                                             |
|      For optimal performance we recommend to set                            |
|        NCORE= 4 - approx SQRT( number of cores)                             |
|      NCORE specifies how many cores store one orbital (NPAR=cpu/NCORE).     |
|      This setting can  greatly improve the performance of VASP for DFT.     |
|      The default, NPAR=number of cores might be grossly inefficient         |
|      on modern multi-core architectures or massively parallel machines.     |
|      Do your own testing !!!!                                               |
|      Unfortunately you need to use the default for GW and RPA calculations. |
|      (for HF NCORE is supported but not extensively tested yet)             |
|                                                                             |
 ----------------------------------------------------------------------------- 

 LDA part: xc-table for Ceperly-Alder, standard interpolation
 found WAVECAR, reading the header
  number of bands has changed, file:    80 present:   105
  trying to continue reading WAVECAR, but it might fail
 POSCAR, INCAR and KPOINTS ok, starting setup
 WARNING: small aliasing (wrap around) errors must be expected
 FFT: planning ...
 reading WAVECAR
 random initialization beyond band           81
 the WAVECAR file was read successfully
 initial charge from wavefunction
 entering main loop
       N       E                     dE             d eps       ncg     rms          rms(c)
DAV:   1    -0.852653795597E+02   -0.85265E+02   -0.55434E+01 13965   0.206E+01    0.154E+01
RMM:   2    -0.562229185865E+03   -0.47696E+03   -0.53810E+02 10632   0.593E+01    0.693E+01
RMM:   3    -0.974785286176E+02    0.46475E+03   -0.10301E+02  8647   0.259E+01    0.265E+01
RMM:   4    -0.810434892832E+02    0.16435E+02   -0.80954E+00  8628   0.100E+01    0.962E+00
RMM:   5    -0.799522128152E+02    0.10913E+01   -0.15336E+00  8632   0.417E+00    0.782E+00
RMM:   6    -0.794419158900E+02    0.51030E+00   -0.35326E-01  8631   0.197E+00    0.526E+00
RMM:   7    -0.789503520330E+02    0.49156E+00   -0.21099E-01  8624   0.150E+00    0.167E+00
RMM:   8    -0.789474800925E+02    0.28719E-02   -0.17900E-02  8832   0.365E-01    0.171E+00
RMM:   9    -0.789348498904E+02    0.12630E-01   -0.43651E-03  8623   0.208E-01    0.158E+00
RMM:  10    -0.788815910068E+02    0.53259E-01   -0.12843E-02  8615   0.342E-01    0.748E-01
RMM:  11    -0.788759245111E+02    0.56665E-02   -0.20844E-03  8624   0.156E-01    0.647E-01
RMM:  12    -0.788711754275E+02    0.47491E-02   -0.92043E-04  8626   0.840E-02    0.528E-01
RMM:  13    -0.788652390203E+02    0.59364E-02   -0.56447E-04  8611   0.567E-02    0.496E-01
RMM:  14    -0.788602101132E+02    0.50289E-02   -0.51345E-04  8610   0.582E-02    0.385E-01
RMM:  15    -0.788558869231E+02    0.43232E-02   -0.72596E-04  8610   0.700E-02    0.179E-01
RMM:  16    -0.788554943909E+02    0.39253E-03   -0.16247E-04  8225   0.372E-02    0.189E-01
RMM:  17    -0.788544967105E+02    0.99768E-03   -0.24391E-04  8543   0.413E-02    0.143E-01
RMM:  18    -0.788537638421E+02    0.73287E-03   -0.55191E-04  8407   0.453E-02    0.897E-02
RMM:  19    -0.788538207631E+02   -0.56921E-04   -0.13587E-04  7896   0.283E-02    0.190E-02
RMM:  20    -0.788543387765E+02   -0.51801E-03   -0.29277E-05  6705   0.176E-02    0.159E-02
RMM:  21    -0.788546748878E+02   -0.33611E-03   -0.37891E-05  6761   0.174E-02    0.209E-02
RMM:  22    -0.788549933784E+02   -0.31849E-03   -0.89313E-05  7139   0.212E-02    0.193E-02
RMM:  23    -0.788551526225E+02   -0.15924E-03   -0.11497E-05  6127   0.877E-03    0.884E-03
RMM:  24    -0.788552620869E+02   -0.10946E-03   -0.75617E-06  5948   0.662E-03    0.592E-03
RMM:  25    -0.788553836221E+02   -0.12154E-03   -0.18707E-05  6370   0.915E-03    0.615E-02
RMM:  26    -0.788553644533E+02    0.19169E-04   -0.15257E-06  5635   0.549E-03    0.477E-02
RMM:  27    -0.788553224101E+02    0.42043E-04   -0.25610E-06  5400   0.350E-03    0.796E-03
RMM:  28    -0.788553318044E+02   -0.93943E-05   -0.39051E-06  5732   0.440E-03
   1 F= -.78855332E+02 E0= -.78793948E+02  d E =-.788553E+02
 curvature:   0.00 expect dE= 0.000E+00 dE for cont linesearch  0.000E+00
 trial: gam= 0.00000 g(F)=  0.268E-03 g(S)=  0.000E+00 ort = 0.000E+00 (trialstep = 0.100E+01)
 search vector abs. value=  0.268E-03
 bond charge predicted
       N       E                     dE             d eps       ncg     rms          rms(c)
DAV:   1    -0.788555732788E+02   -0.25087E-03   -0.14341E-02  9695   0.284E-01    0.342E-02
RMM:   2    -0.788591427495E+02   -0.35695E-02   -0.51452E-04  8610   0.663E-02    0.464E-01
RMM:   3    -0.788556078082E+02    0.35349E-02   -0.22276E-04  8576   0.368E-02    0.234E-02
RMM:   4    -0.788555783027E+02    0.29505E-04   -0.16859E-05  6053   0.189E-02    0.185E-02
RMM:   5    -0.788555743113E+02    0.39914E-05   -0.44852E-06  5487   0.110E-02
   2 F= -.78855574E+02 E0= -.78794220E+02  d E =-.242507E-03
 ZBRENT: can't locate minimum, use default step
 trial-energy change:   -0.000243  1 .order   -0.000251   -0.000268   -0.000235
 step:   4.0000(harm=  8.2719)  dis= 0.00227  next Energy=   -78.856439 (dE=-0.111E-02)
 bond charge predicted
       N       E                     dE             d eps       ncg     rms          rms(c)
DAV:   1    -0.788560376439E+02   -0.45934E-03   -0.12920E-01 10535   0.854E-01    0.574E-02
RMM:   2    -0.788578213782E+02   -0.17837E-02   -0.18162E-03  8616   0.144E-01    0.318E-01
RMM:   3    -0.788562822029E+02    0.15392E-02   -0.26788E-04  8640   0.527E-02    0.866E-02
RMM:   4    -0.788561960207E+02    0.86182E-04   -0.69680E-05  8408   0.280E-02    0.528E-02
RMM:   5    -0.788561538693E+02    0.42151E-04   -0.13810E-05  5718   0.145E-02    0.223E-02
RMM:   6    -0.788561465973E+02    0.72720E-05   -0.16122E-05  5557   0.139E-02
   3 F= -.78856147E+02 E0= -.78794855E+02  d E =-.814793E-03
 curvature:  -2.71 expect dE=-0.792E-03 dE for cont linesearch -0.189E-03
 ZBRENT: increasing intervall
 opt :  10.0000  next Energy=   -78.856375 (dE=-0.104E-02)
 bond charge predicted
       N       E                     dE             d eps       ncg     rms          rms(c)
DAV:   1    -0.788559416860E+02    0.21218E-03   -0.51595E-01  8925   0.171E+00    0.110E-01
RMM:   2    -0.788604170301E+02   -0.44753E-02   -0.71202E-03  8615   0.287E-01    0.486E-01
RMM:   3    -0.788569948619E+02    0.34222E-02   -0.93753E-04  8867   0.999E-02    0.185E-01
RMM:   4    -0.788565800565E+02    0.41481E-03   -0.26739E-04  8616   0.536E-02    0.955E-02
RMM:   5    -0.788564465718E+02    0.13348E-03   -0.57374E-05  8313   0.265E-02    0.441E-02
RMM:   6    -0.788564298529E+02    0.16719E-04   -0.36396E-05  7466   0.196E-02    0.360E-02
RMM:   7    -0.788564205099E+02    0.93431E-05   -0.60878E-05  8451   0.237E-02
   4 F= -.78856421E+02 E0= -.78795228E+02  d E =-.108871E-02
 curvature:  -3.27 expect dE=-0.486E-02 dE for cont linesearch -0.216E-04
 trial: gam= 5.69692 g(F)=  0.148E-02 g(S)=  0.000E+00 ort =-0.420E-04 (trialstep = 0.773E-01)
 search vector abs. value=  0.969E-02
 bond charge predicted
       N       E                     dE             d eps       ncg     rms          rms(c)
DAV:   1    -0.788564990436E+02   -0.69191E-04   -0.30788E-03 11480   0.135E-01    0.158E-02
RMM:   2    -0.788565843232E+02   -0.85280E-04   -0.69249E-05  8353   0.270E-02    0.691E-02
RMM:   3    -0.788565210762E+02    0.63247E-04   -0.13166E-05  5632   0.122E-02    0.377E-02
RMM:   4    -0.788564998743E+02    0.21202E-04   -0.10304E-05  5571   0.147E-02    0.724E-03
RMM:   5    -0.788564996426E+02    0.23174E-06   -0.26185E-06  5466   0.693E-03
   5 F= -.78856500E+02 E0= -.78795335E+02  d E =-.791327E-04
 ZBRENT: can't locate minimum, use default step
 trial-energy change:   -0.000079  1 .order   -0.000091   -0.000096   -0.000086
 step:   0.3093(harm=  0.7389)  dis= 0.00107  next Energy=   -78.856880 (dE=-0.459E-03)
 bond charge predicted
       N       E                     dE             d eps       ncg     rms          rms(c)
DAV:   1    -0.788567275956E+02   -0.22772E-03   -0.26936E-02  8785   0.375E-01    0.174E-02
RMM:   2    -0.788567724949E+02   -0.44899E-04   -0.31587E-04  8591   0.634E-02    0.319E-02
RMM:   3    -0.788567807118E+02   -0.82169E-05   -0.28029E-05  6439   0.188E-02
   6 F= -.78856781E+02 E0= -.78795624E+02  d E =-.360202E-03
 curvature:  -1.67 expect dE=-0.212E-02 dE for cont linesearch -0.152E-03
 ZBRENT: increasing intervall
 opt :   0.7733  next Energy=   -78.857138 (dE=-0.717E-03)
 bond charge predicted
       N       E                     dE             d eps       ncg     rms          rms(c)
DAV:   1    -0.788571068572E+02   -0.33436E-03   -0.10830E-01 10710   0.751E-01    0.400E-02
RMM:   2    -0.788572988101E+02   -0.19195E-03   -0.12293E-03  8621   0.123E-01    0.738E-02
RMM:   3    -0.788573359900E+02   -0.37180E-04   -0.12827E-04  8932   0.364E-02    0.861E-02
RMM:   4    -0.788572333976E+02    0.10259E-03   -0.20406E-05  6174   0.158E-02    0.373E-02
RMM:   5    -0.788572112668E+02    0.22131E-04   -0.13057E-05  5508   0.156E-02    0.189E-02
RMM:   6    -0.788572129493E+02   -0.16825E-05   -0.35169E-05  7107   0.184E-02
   7 F= -.78857213E+02 E0= -.78796159E+02  d E =-.792439E-03
 curvature:  -3.90 expect dE=-0.433E-02 dE for cont linesearch -0.296E-03
 ZBRENT: increasing intervall
 opt :   1.7014  next Energy=   -78.857930 (dE=-0.151E-02)
 bond charge predicted
       N       E                     dE             d eps       ncg     rms          rms(c)
DAV:   1    -0.788573285607E+02   -0.11729E-03   -0.42899E-01  9100   0.150E+00    0.646E-02
RMM:   2    -0.788581358166E+02   -0.80726E-03   -0.51015E-03  8617   0.253E-01    0.143E-01
RMM:   3    -0.788579899198E+02    0.14590E-03   -0.58622E-04 10356   0.754E-02    0.103E-01
RMM:   4    -0.788578586903E+02    0.13123E-03   -0.65204E-05  8327   0.262E-02    0.512E-02
RMM:   5    -0.788578257011E+02    0.32989E-04   -0.22921E-05  6046   0.173E-02    0.341E-02
RMM:   6    -0.788578379547E+02   -0.12254E-04   -0.76184E-05  8468   0.258E-02    0.430E-02
RMM:   7    -0.788578134601E+02    0.24495E-04   -0.40696E-05  7573   0.178E-02    0.193E-02
RMM:   8    -0.788578077420E+02    0.57180E-05   -0.89828E-06  5408   0.122E-02
   8 F= -.78857808E+02 E0= -.78796879E+02  d E =-.138723E-02
 curvature:  -9.46 expect dE=-0.797E-02 dE for cont linesearch -0.235E-03
 ZBRENT: increasing intervall
 opt :   3.5574  next Energy=   -78.858036 (dE=-0.162E-02)
 bond charge predicted
       N       E                     dE             d eps       ncg     rms          rms(c)
DAV:   1    -0.788559108223E+02    0.19026E-02   -0.17147E+00  8680   0.299E+00    0.129E-01
RMM:   2    -0.788581281151E+02   -0.22173E-02   -0.20554E-02  8616   0.520E-01    0.146E-01
RMM:   3    -0.788598784148E+02   -0.17503E-02   -0.24533E-03 10760   0.147E-01    0.353E-01
RMM:   4    -0.788580348289E+02    0.18436E-02   -0.25695E-04  8671   0.502E-02    0.912E-02
RMM:   5    -0.788579459420E+02    0.88887E-04   -0.92770E-05  8495   0.305E-02    0.759E-02
RMM:   6    -0.788579065164E+02    0.39426E-04   -0.15275E-04  8556   0.344E-02    0.640E-02
RMM:   7    -0.788578717053E+02    0.34811E-04   -0.25007E-04  8590   0.409E-02    0.422E-02
RMM:   8    -0.788578516175E+02    0.20088E-04   -0.49145E-05  7864   0.231E-02    0.222E-02
RMM:   9    -0.788578425543E+02    0.90633E-05   -0.66144E-06  5450   0.995E-03
   9 F= -.78857843E+02 E0= -.78797166E+02  d E =-.142204E-02
 curvature:  -9.22 expect dE=-0.900E-02 dE for cont linesearch -0.176E-03
 ZBRENT: bracketing found
 ZBRENT: interpolating
 opt :   2.6894  next Energy=   -78.858029 (dE=-0.161E-02)
 bond charge predicted
       N       E                     dE             d eps       ncg     rms          rms(c)
DAV:   1    -0.788576237785E+02    0.22784E-03   -0.37652E-01  8820   0.140E+00    0.571E-02
RMM:   2    -0.788580518498E+02   -0.42807E-03   -0.42277E-03  8615   0.233E-01    0.542E-02
RMM:   3    -0.788584346916E+02   -0.38284E-03   -0.42904E-04 10483   0.635E-02    0.156E-01
RMM:   4    -0.788580634042E+02    0.37129E-03   -0.47255E-05  7453   0.201E-02    0.490E-02
RMM:   5    -0.788580324264E+02    0.30978E-04   -0.17918E-05  5770   0.163E-02    0.341E-02
RMM:   6    -0.788580218556E+02    0.10571E-04   -0.48461E-05  8008   0.223E-02    0.279E-02
RMM:   7    -0.788580170835E+02    0.47721E-05   -0.73516E-05  8454   0.231E-02
  10 F= -.78858017E+02 E0= -.78797236E+02  d E =-.159657E-02
 curvature:  -9.77 expect dE=-0.777E-02 dE for cont linesearch -0.114E-04
 trial: gam= 0.11120 g(F)=  0.795E-03 g(S)=  0.000E+00 ort =-0.106E-03 (trialstep = 0.600E+00)
 search vector abs. value=  0.892E-03
 bond charge predicted
       N       E                     dE             d eps       ncg     rms          rms(c)
DAV:   1    -0.788584423539E+02   -0.42050E-03   -0.16204E-02  9240   0.312E-01    0.214E-02
RMM:   2    -0.788585996305E+02   -0.15728E-03   -0.26382E-04  8595   0.574E-02    0.943E-02
RMM:   3    -0.788584855299E+02    0.11410E-03   -0.32231E-05  7004   0.186E-02    0.407E-02
RMM:   4    -0.788584627502E+02    0.22780E-04   -0.11460E-05  5633   0.146E-02    0.194E-02
RMM:   5    -0.788584569289E+02    0.58212E-05   -0.40760E-06  5467   0.103E-02
  11 F= -.78858457E+02 E0= -.78797663E+02  d E =-.439845E-03
 ZBRENT: can't locate minimum, use default step
 trial-energy change:   -0.000440  1 .order   -0.000438   -0.000470   -0.000407
 step:   2.3990(harm=  4.4793)  dis= 0.00267  next Energy=   -78.859772 (dE=-0.175E-02)
 bond charge predicted
       N       E                     dE             d eps       ncg     rms          rms(c)
DAV:   1    -0.788593065760E+02   -0.84383E-03   -0.14510E-01  8680   0.932E-01    0.610E-02
RMM:   2    -0.788611345009E+02   -0.18279E-02   -0.21307E-03  8620   0.155E-01    0.321E-01
RMM:   3    -0.788595948400E+02    0.15397E-02   -0.28678E-04  8665   0.537E-02    0.978E-02
RMM:   4    -0.788594742975E+02    0.12054E-03   -0.88705E-05  8549   0.323E-02    0.538E-02
RMM:   5    -0.788594297240E+02    0.44573E-04   -0.15708E-05  5799   0.149E-02    0.237E-02
RMM:   6    -0.788594245283E+02    0.51957E-05   -0.20089E-05  5817   0.171E-02
  12 F= -.78859425E+02 E0= -.78798620E+02  d E =-.140744E-02
 curvature:  -1.82 expect dE=-0.107E-02 dE for cont linesearch -0.266E-03
 ZBRENT: increasing intervall
 opt :   5.9974  next Energy=   -78.859586 (dE=-0.157E-02)
 bond charge predicted
       N       E                     dE             d eps       ncg     rms          rms(c)
DAV:   1    -0.788590579771E+02    0.37175E-03   -0.57923E-01  9380   0.186E+00    0.118E-01
RMM:   2    -0.788656090438E+02   -0.65511E-02   -0.87317E-03  8622   0.321E-01    0.604E-01
RMM:   3    -0.788602067167E+02    0.54023E-02   -0.11344E-03  8877   0.103E-01    0.182E-01
RMM:   4    -0.788598003268E+02    0.40639E-03   -0.32112E-04  8613   0.620E-02    0.103E-01
RMM:   5    -0.788596396364E+02    0.16069E-03   -0.65160E-05  8472   0.284E-02    0.461E-02
RMM:   6    -0.788596309466E+02    0.86898E-05   -0.57920E-05  8439   0.240E-02
  13 F= -.78859631E+02 E0= -.78798822E+02  d E =-.161386E-02
 curvature:  -1.10 expect dE=-0.288E-02 dE for cont linesearch -0.770E-04
 trial: gam= 0.00000 g(F)=  0.262E-02 g(S)=  0.000E+00 ort =-0.250E-03 (trialstep = 0.572E+00)
 search vector abs. value=  0.262E-02
 bond charge predicted
       N       E                     dE             d eps       ncg     rms          rms(c)
DAV:   1    -0.788607824432E+02   -0.11428E-02   -0.31307E-02 11095   0.470E-01    0.706E-02
RMM:   2    -0.788621675794E+02   -0.13851E-02   -0.89675E-04  8617   0.791E-02    0.295E-01
RMM:   3    -0.788611553389E+02    0.10122E-02   -0.20186E-04  8610   0.405E-02    0.151E-01
RMM:   4    -0.788608165845E+02    0.33875E-03   -0.11199E-04  8572   0.331E-02    0.570E-02
RMM:   5    -0.788607603372E+02    0.56247E-04   -0.19459E-05  5940   0.163E-02    0.220E-02
RMM:   6    -0.788607596227E+02    0.71452E-06   -0.89645E-06  5569   0.146E-02
  14 F= -.78860760E+02 E0= -.78799942E+02  d E =-.112868E-02
 trial-energy change:   -0.001129  1 .order   -0.001178   -0.001497   -0.000859
 step:   1.3420(harm=  1.3420)  dis= 0.00347  next Energy=   -78.861386 (dE=-0.176E-02)
 bond charge predicted
       N       E                     dE             d eps       ncg     rms          rms(c)
DAV:   1    -0.788613152505E+02   -0.55491E-03   -0.54732E-02  9345   0.609E-01    0.831E-02
RMM:   2    -0.788630344498E+02   -0.17192E-02   -0.11684E-03  8616   0.896E-02    0.323E-01
RMM:   3    -0.788616680880E+02    0.13664E-02   -0.24326E-04  8611   0.445E-02    0.153E-01
RMM:   4    -0.788613646207E+02    0.30347E-03   -0.11094E-04  8597   0.308E-02    0.704E-02
RMM:   5    -0.788612811325E+02    0.83488E-04   -0.27931E-05  6687   0.181E-02    0.234E-02
RMM:   6    -0.788612768841E+02    0.42484E-05   -0.15923E-05  5809   0.151E-02
  15 F= -.78861277E+02 E0= -.78800459E+02  d E =-.164594E-02
 curvature:  -0.67 expect dE=-0.127E-03 dE for cont linesearch -0.449E-05
 trial: gam= 0.12287 g(F)=  0.189E-03 g(S)=  0.000E+00 ort =-0.132E-03 (trialstep = 0.726E+00)
 search vector abs. value=  0.196E-03
 bond charge predicted
       N       E                     dE             d eps       ncg     rms          rms(c)
DAV:   1    -0.788613960051E+02   -0.11487E-03   -0.54964E-03 11445   0.178E-01    0.113E-02
RMM:   2    -0.788614148884E+02   -0.18883E-04   -0.90587E-05  8354   0.366E-02    0.270E-02
RMM:   3    -0.788614177946E+02   -0.29062E-05   -0.11379E-05  5443   0.117E-02
  16 F= -.78861418E+02 E0= -.78800612E+02  d E =-.140910E-03
 ZBRENT: can't locate minimum, use default step
 trial-energy change:   -0.000141  1 .order   -0.000120   -0.000126   -0.000114
 step:   2.9053(harm=  7.6831)  dis= 0.00110  next Energy=   -78.861941 (dE=-0.664E-03)
 bond charge predicted
       N       E                     dE             d eps       ncg     rms          rms(c)
DAV:   1    -0.788617126772E+02   -0.29779E-03   -0.49768E-02  8680   0.526E-01    0.240E-02
RMM:   2    -0.788618477994E+02   -0.13512E-03   -0.59261E-04  8609   0.902E-02    0.683E-02
RMM:   3    -0.788617868494E+02    0.60950E-04   -0.62651E-05  8196   0.253E-02    0.347E-02
RMM:   4    -0.788617756068E+02    0.11243E-04   -0.94261E-06  5604   0.126E-02    0.225E-02
RMM:   5    -0.788617697831E+02    0.58238E-05   -0.48860E-06  5469   0.110E-02
  17 F= -.78861770E+02 E0= -.78800926E+02  d E =-.492899E-03
 curvature:  -2.30 expect dE=-0.360E-03 dE for cont linesearch -0.256E-03
 ZBRENT: increasing intervall
 opt :   7.2632  next Energy=   -78.862374 (dE=-0.110E-02)
 bond charge predicted
       N       E                     dE             d eps       ncg     rms          rms(c)
DAV:   1    -0.788621363377E+02   -0.36073E-03   -0.19782E-01  8610   0.105E+00    0.451E-02
RMM:   2    -0.788624244194E+02   -0.28808E-03   -0.22130E-03  8610   0.169E-01    0.721E-02
RMM:   3    -0.788625115028E+02   -0.87083E-04   -0.22770E-04  9787   0.490E-02    0.101E-01
RMM:   4    -0.788623780504E+02    0.13345E-03   -0.36143E-05  7122   0.197E-02    0.449E-02
RMM:   5    -0.788623488262E+02    0.29224E-04   -0.12651E-05  5601   0.144E-02    0.239E-02
RMM:   6    -0.788623527576E+02   -0.39314E-05   -0.18748E-05  5766   0.163E-02
  18 F= -.78862353E+02 E0= -.78801501E+02  d E =-.107587E-02
 curvature:  -5.44 expect dE=-0.804E-03 dE for cont linesearch -0.403E-03
 ZBRENT: increasing intervall
 opt :  15.9789  next Energy=   -78.863167 (dE=-0.189E-02)
 bond charge predicted
       N       E                     dE             d eps       ncg     rms          rms(c)
DAV:   1    -0.788622572612E+02    0.91565E-04   -0.78914E-01  8610   0.210E+00    0.855E-02
RMM:   2    -0.788634740438E+02   -0.12168E-02   -0.92935E-03  8610   0.352E-01    0.153E-01
RMM:   3    -0.788635442925E+02   -0.70249E-04   -0.10508E-03 11019   0.942E-02    0.146E-01
RMM:   4    -0.788632149640E+02    0.32933E-03   -0.85303E-05  8589   0.280E-02    0.591E-02
RMM:   5    -0.788631819172E+02    0.33047E-04   -0.34319E-05  7208   0.176E-02    0.485E-02
RMM:   6    -0.788631684684E+02    0.13449E-04   -0.12669E-04  8588   0.319E-02    0.404E-02
RMM:   7    -0.788631456820E+02    0.22786E-04   -0.78666E-05  8408   0.232E-02    0.161E-02
RMM:   8    -0.788631428099E+02    0.28721E-05   -0.66635E-06  5441   0.116E-02
  19 F= -.78863143E+02 E0= -.78802291E+02  d E =-.186593E-02
 curvature: -11.00 expect dE=-0.216E-02 dE for cont linesearch -0.278E-03
 ZBRENT: increasing intervall
 opt :  33.4105  next Energy=   -78.863497 (dE=-0.222E-02)
 bond charge predicted
       N       E                     dE             d eps       ncg     rms          rms(c)
DAV:   1    -0.788596803490E+02    0.34653E-02   -0.31532E+00  8610   0.419E+00    0.172E-01
RMM:   2    -0.788649012632E+02   -0.52209E-02   -0.37880E-02  8610   0.729E-01    0.339E-01
RMM:   3    -0.788648956148E+02    0.56484E-05   -0.44572E-03 11128   0.183E-01    0.288E-01
RMM:   4    -0.788635823900E+02    0.13132E-02   -0.35216E-04  8625   0.577E-02    0.123E-01
RMM:   5    -0.788634339570E+02    0.14843E-03   -0.14815E-04  8570   0.359E-02    0.981E-02
RMM:   6    -0.788633651740E+02    0.68783E-04   -0.46610E-04  8615   0.583E-02    0.793E-02
RMM:   7    -0.788632807073E+02    0.84467E-04   -0.34465E-04  8691   0.472E-02    0.382E-02
RMM:   8    -0.788632651369E+02    0.15570E-04   -0.34552E-05  7153   0.241E-02    0.248E-02
RMM:   9    -0.788632544662E+02    0.10671E-04   -0.85387E-06  5559   0.123E-02    0.136E-02
RMM:  10    -0.788632530840E+02    0.13822E-05   -0.63120E-06  5556   0.874E-03
  20 F= -.78863253E+02 E0= -.78802365E+02  d E =-.197620E-02
 curvature: -14.01 expect dE=-0.903E-02 dE for cont linesearch -0.217E-03
 ZBRENT: bracketing found
 ZBRENT: interpolating
 opt :  25.7530  next Energy=   -78.863464 (dE=-0.219E-02)
 bond charge predicted
       N       E                     dE             d eps       ncg     rms          rms(c)
DAV:   1    -0.788628043349E+02    0.45013E-03   -0.60997E-01  9310   0.184E+00    0.733E-02
RMM:   2    -0.788637658125E+02   -0.96148E-03   -0.69230E-03  8610   0.299E-01    0.140E-01
RMM:   3    -0.788636851887E+02    0.80624E-04   -0.71325E-04 10222   0.864E-02    0.108E-01
RMM:   4    -0.788635083394E+02    0.17685E-03   -0.60700E-05  8230   0.242E-02    0.426E-02
RMM:   5    -0.788635023124E+02    0.60270E-05   -0.37638E-05  7541   0.197E-02
  21 F= -.78863502E+02 E0= -.78802617E+02  d E =-.222543E-02
 curvature: -13.61 expect dE=-0.547E-02 dE for cont linesearch -0.111E-04
 trial: gam= 1.93678 g(F)=  0.402E-03 g(S)=  0.000E+00 ort =-0.126E-04 (trialstep = 0.103E+01)
 search vector abs. value=  0.109E-02
 bond charge predicted
       N       E                     dE             d eps       ncg     rms          rms(c)
DAV:   1    -0.788638110112E+02   -0.30267E-03   -0.52669E-02 10710   0.529E-01    0.458E-02
RMM:   2    -0.788643806327E+02   -0.56962E-03   -0.91857E-04  8611   0.106E-01    0.173E-01
RMM:   3    -0.788642441055E+02    0.13653E-03   -0.20379E-04  8589   0.465E-02    0.155E-01
RMM:   4    -0.788638655664E+02    0.37854E-03   -0.50964E-05  7754   0.223E-02    0.302E-02
RMM:   5    -0.788638478172E+02    0.17749E-04   -0.98489E-06  5602   0.135E-02    0.133E-02
RMM:   6    -0.788638451085E+02    0.27086E-05   -0.31055E-06  5450   0.882E-03
  22 F= -.78863845E+02 E0= -.78802988E+02  d E =-.342796E-03
 ZBRENT: can't locate minimum, use default step
 trial-energy change:   -0.000343  1 .order   -0.000369   -0.000390   -0.000349
 step:   4.1311(harm=  9.8019)  dis= 0.00399  next Energy=   -78.865351 (dE=-0.185E-02)
 bond charge predicted
       N       E                     dE             d eps       ncg     rms          rms(c)
DAV:   1    -0.788641142459E+02   -0.26643E-03   -0.47057E-01  8610   0.158E+00    0.726E-02
RMM:   2    -0.788646647744E+02   -0.55053E-03   -0.53056E-03  8611   0.269E-01    0.694E-02
RMM:   3    -0.788653391688E+02   -0.67439E-03   -0.60197E-04 10445   0.729E-02    0.209E-01
RMM:   4    -0.788646516077E+02    0.68756E-03   -0.80424E-05  8376   0.275E-02    0.440E-02
RMM:   5    -0.788646194908E+02    0.32117E-04   -0.38676E-05  7567   0.200E-02    0.327E-02
RMM:   6    -0.788646416099E+02   -0.22119E-04   -0.72325E-05  8493   0.254E-02    0.476E-02
RMM:   7    -0.788646087131E+02    0.32897E-04   -0.43689E-05  7738   0.186E-02    0.181E-02
RMM:   8    -0.788646039445E+02    0.47686E-05   -0.65901E-06  5407   0.109E-02
  23 F= -.78864604E+02 E0= -.78803797E+02  d E =-.110163E-02
 curvature:  -8.23 expect dE=-0.556E-02 dE for cont linesearch -0.178E-03
 ZBRENT: increasing intervall
 opt :  10.3278  next Energy=   -78.864414 (dE=-0.912E-03)
 bond charge predicted
       N       E                     dE             d eps       ncg     rms          rms(c)
DAV:   1    -0.788622729515E+02    0.23358E-02   -0.18774E+00  8610   0.315E+00    0.146E-01
RMM:   2    -0.788645633036E+02   -0.22904E-02   -0.22141E-02  8611   0.562E-01    0.140E-01
RMM:   3    -0.788675154872E+02   -0.29522E-02   -0.27269E-03 10927   0.143E-01    0.430E-01
RMM:   4    -0.788645448863E+02    0.29706E-02   -0.33625E-04  8627   0.539E-02    0.880E-02
RMM:   5    -0.788644516527E+02    0.93234E-04   -0.13845E-04  8600   0.357E-02    0.737E-02
RMM:   6    -0.788644729266E+02   -0.21274E-04   -0.21970E-04  8621   0.422E-02    0.842E-02
RMM:   7    -0.788643738686E+02    0.99058E-04   -0.24000E-04  8657   0.400E-02    0.310E-02
RMM:   8    -0.788643620797E+02    0.11789E-04   -0.25129E-05  6417   0.188E-02    0.195E-02
RMM:   9    -0.788643560796E+02    0.60001E-05   -0.71274E-06  5443   0.135E-02
  24 F= -.78864356E+02 E0= -.78803639E+02  d E =-.853767E-03
 curvature:   8.76 expect dE= 0.312E-01 dE for cont linesearch  0.392E-03
 ZBRENT: bracketing found
 ZBRENT: interpolating
 opt :   6.6723  next Energy=   -78.864799 (dE=-0.130E-02)
 bond charge predicted
       N       E                     dE             d eps       ncg     rms          rms(c)
DAV:   1    -0.788641075706E+02    0.25451E-03   -0.65542E-01  8610   0.186E+00    0.825E-02
RMM:   2    -0.788649278689E+02   -0.82030E-03   -0.72819E-03  8611   0.317E-01    0.101E-01
RMM:   3    -0.788653708987E+02   -0.44303E-03   -0.82246E-04 10359   0.873E-02    0.189E-01
RMM:   4    -0.788648268433E+02    0.54406E-03   -0.86103E-05  8479   0.295E-02    0.497E-02
RMM:   5    -0.788647944135E+02    0.32430E-04   -0.67681E-05  8432   0.237E-02    0.401E-02
RMM:   6    -0.788647920880E+02    0.23255E-05   -0.13361E-04  8596   0.306E-02    0.378E-02
RMM:   7    -0.788647703890E+02    0.21699E-04   -0.26449E-05  6545   0.163E-02    0.147E-02
RMM:   8    -0.788647674749E+02    0.29141E-05   -0.61274E-06  5357   0.123E-02
  25 F= -.78864767E+02 E0= -.78804000E+02  d E =-.126516E-02
 curvature:  -4.36 expect dE=-0.665E-02 dE for cont linesearch -0.247E-05
 trial: gam= 3.83346 g(F)=  0.153E-02 g(S)=  0.000E+00 ort =-0.248E-04 (trialstep = 0.136E+00)
 search vector abs. value=  0.173E-01
 bond charge predicted
       N       E                     dE             d eps       ncg     rms          rms(c)
DAV:   1    -0.788649515289E+02   -0.18114E-03   -0.16335E-02  9835   0.304E-01    0.154E-02
RMM:   2    -0.788649812476E+02   -0.29719E-04   -0.17648E-04  8520   0.498E-02    0.306E-02
RMM:   3    -0.788649907397E+02   -0.94921E-05   -0.15941E-05  5644   0.148E-02
  26 F= -.78864991E+02 E0= -.78804199E+02  d E =-.223265E-03
 ZBRENT: can't locate minimum, use default step
 trial-energy change:   -0.000223  1 .order   -0.000191   -0.000194   -0.000189
 step:   0.5428(harm=  4.7218)  dis= 0.00169  next Energy=   -78.868146 (dE=-0.338E-02)
 bond charge predicted
       N       E                     dE             d eps       ncg     rms          rms(c)
DAV:   1    -0.788654078010E+02   -0.42655E-03   -0.14638E-01  8715   0.912E-01    0.497E-02
RMM:   2    -0.788656416448E+02   -0.23384E-03   -0.16725E-03  8611   0.150E-01    0.747E-02
RMM:   3    -0.788655974757E+02    0.44169E-04   -0.18296E-04  9413   0.443E-02    0.523E-02
RMM:   4    -0.788657385369E+02   -0.14106E-03   -0.30511E-05  6995   0.154E-02    0.107E-01
RMM:   5    -0.788655537318E+02    0.18481E-03   -0.19122E-05  5974   0.156E-02    0.223E-02
RMM:   6    -0.788655516248E+02    0.21069E-05   -0.36055E-05  7123   0.191E-02
  27 F= -.78865552E+02 E0= -.78804820E+02  d E =-.784150E-03
 curvature:  -4.85 expect dE=-0.597E-02 dE for cont linesearch -0.518E-03
 ZBRENT: increasing intervall
 opt :   1.3570  next Energy=   -78.866636 (dE=-0.187E-02)
 bond charge predicted
       N       E                     dE             d eps       ncg     rms          rms(c)
DAV:   1    -0.788658745438E+02   -0.32081E-03   -0.58136E-01  8610   0.182E+00    0.906E-02
RMM:   2    -0.788678300056E+02   -0.19555E-02   -0.69022E-03  8610   0.306E-01    0.279E-01
RMM:   3    -0.788668272691E+02    0.10027E-02   -0.86963E-04 10148   0.903E-02    0.139E-01
RMM:   4    -0.788666247761E+02    0.20249E-03   -0.14854E-04  8608   0.412E-02    0.816E-02
RMM:   5    -0.788665362534E+02    0.88523E-04   -0.44587E-05  7894   0.229E-02    0.444E-02
RMM:   6    -0.788665398917E+02   -0.36383E-05   -0.61670E-05  8389   0.243E-02
  28 F= -.78866540E+02 E0= -.78805843E+02  d E =-.177242E-02
 curvature: -10.15 expect dE=-0.928E-02 dE for cont linesearch -0.751E-03
 ZBRENT: increasing intervall
 opt :   2.9853  next Energy=   -78.868013 (dE=-0.325E-02)
 bond charge predicted
       N       E                     dE             d eps       ncg     rms          rms(c)
DAV:   1    -0.788650971720E+02    0.14391E-02   -0.23267E+00  8610   0.364E+00    0.179E-01
RMM:   2    -0.788711618443E+02   -0.60647E-02   -0.27661E-02  8610   0.625E-01    0.455E-01
RMM:   3    -0.788689755286E+02    0.21863E-02   -0.35529E-03 10572   0.176E-01    0.283E-01
RMM:   4    -0.788681163187E+02    0.85921E-03   -0.49061E-04  8637   0.741E-02    0.159E-01
RMM:   5    -0.788677881015E+02    0.32822E-03   -0.18246E-04  8601   0.451E-02    0.902E-02
RMM:   6    -0.788677920968E+02   -0.39954E-05   -0.29305E-04  8621   0.488E-02    0.939E-02
RMM:   7    -0.788676780566E+02    0.11404E-03   -0.27309E-04  8629   0.444E-02    0.429E-02
RMM:   8    -0.788676495968E+02    0.28460E-04   -0.49513E-05  8017   0.219E-02    0.146E-02
RMM:   9    -0.788676460879E+02    0.35090E-05   -0.51397E-06  5410   0.920E-03
  29 F= -.78867646E+02 E0= -.78807021E+02  d E =-.287861E-02
 curvature: -19.90 expect dE=-0.101E-01 dE for cont linesearch -0.309E-03
 ZBRENT: increasing intervall
 opt :   6.2421  next Energy=   -78.867335 (dE=-0.257E-02)
 bond charge predicted
       N       E                     dE             d eps       ncg     rms          rms(c)
DAV:   1    -0.788570134183E+02    0.10636E-01   -0.92991E+00  8610   0.728E+00    0.369E-01
RMM:   2    -0.788784198950E+02   -0.21406E-01   -0.12149E-01  8610   0.140E+00    0.773E-01
RMM:   3    -0.788762110209E+02    0.22089E-02   -0.18046E-02 11067   0.356E-01    0.705E-01
RMM:   4    -0.788701969276E+02    0.60141E-02   -0.19391E-03  8629   0.151E-01    0.318E-01
RMM:   5    -0.788689201237E+02    0.12768E-02   -0.66076E-04  8619   0.892E-02    0.192E-01
RMM:   6    -0.788685203542E+02    0.39977E-03   -0.11489E-03  8636   0.894E-02    0.141E-01
RMM:   7    -0.788685267439E+02   -0.63897E-05   -0.11857E-03  8679   0.959E-02    0.130E-01
RMM:   8    -0.788682634246E+02    0.26332E-03   -0.31740E-04  8636   0.537E-02    0.421E-02
RMM:   9    -0.788682340877E+02    0.29337E-04   -0.33276E-05  7022   0.195E-02    0.247E-02
RMM:  10    -0.788682201981E+02    0.13890E-04   -0.12239E-05  5562   0.145E-02    0.135E-02
RMM:  11    -0.788682164739E+02    0.37242E-05   -0.92282E-06  5477   0.108E-02
  30 F= -.78868216E+02 E0= -.78807766E+02  d E =-.344900E-02
 curvature:  20.02 expect dE= 0.164E-01 dE for cont linesearch  0.326E-04
 trial: gam= 0.66304 g(F)=  0.820E-03 g(S)=  0.000E+00 ort =-0.168E-03 (trialstep = 0.136E+01)
 search vector abs. value=  0.822E-02
 bond charge predicted
       N       E                     dE             d eps       ncg     rms          rms(c)
DAV:   1    -0.788683982654E+02   -0.17807E-03   -0.74184E-01  8890   0.207E+00    0.932E-02
RMM:   2    -0.788694722363E+02   -0.10740E-02   -0.84211E-03  8611   0.343E-01    0.132E-01
RMM:   3    -0.788698221659E+02   -0.34993E-03   -0.94818E-04 10332   0.945E-02    0.194E-01
RMM:   4    -0.788692689160E+02    0.55325E-03   -0.92592E-05  8570   0.310E-02    0.593E-02
RMM:   5    -0.788692575156E+02    0.11400E-04   -0.55524E-05  8104   0.233E-02    0.587E-02
RMM:   6    -0.788692205133E+02    0.37002E-04   -0.10688E-04  8583   0.290E-02    0.364E-02
RMM:   7    -0.788692041757E+02    0.16338E-04   -0.52530E-05  8040   0.201E-02    0.185E-02
RMM:   8    -0.788691988899E+02    0.52858E-05   -0.69289E-06  5493   0.104E-02
  31 F= -.78869199E+02 E0= -.78808772E+02  d E =-.982416E-03
 ZBRENT: can't locate minimum, use default step
 trial-energy change:   -0.000982  1 .order   -0.000939   -0.000962   -0.000917
 step:   5.4279(harm= 28.7069)  dis= 0.01346  next Energy=   -78.878394 (dE=-0.102E-01)
 bond charge predicted
       N       E                     dE             d eps       ncg     rms          rms(c)
DAV:   1    -0.788631060903E+02    0.60981E-02   -0.66736E+00  8610   0.621E+00    0.290E-01
RMM:   2    -0.788717542742E+02   -0.86482E-02   -0.82860E-02  8611   0.114E+00    0.237E-01
RMM:   3    -0.788869016548E+02   -0.15147E-01   -0.11416E-02 10888   0.289E-01    0.100E+00
RMM:   4    -0.788718941875E+02    0.15007E-01   -0.12898E-03  8625   0.118E-01    0.177E-01
RMM:   5    -0.788715735925E+02    0.32060E-03   -0.51635E-04  8619   0.698E-02    0.159E-01
RMM:   6    -0.788714331538E+02    0.14044E-03   -0.65544E-04  8644   0.708E-02    0.139E-01
RMM:   7    -0.788712095388E+02    0.22361E-03   -0.70915E-04  8657   0.709E-02    0.676E-02
RMM:   8    -0.788711484139E+02    0.61125E-04   -0.11692E-04  8621   0.336E-02    0.338E-02
RMM:   9    -0.788711310421E+02    0.17372E-04   -0.12911E-05  5687   0.124E-02    0.215E-02
RMM:  10    -0.788711232969E+02    0.77452E-05   -0.73659E-06  5558   0.136E-02
  32 F= -.78871123E+02 E0= -.78810738E+02  d E =-.290682E-02
 curvature: -45.83 expect dE=-0.333E-01 dE for cont linesearch -0.865E-03
 ZBRENT: increasing intervall
 opt :  13.5697  next Energy=   -78.872036 (dE=-0.382E-02)
 bond charge predicted
       N       E                     dE             d eps       ncg     rms          rms(c)
DAV:   1    -0.788328454040E+02    0.38286E-01   -0.26682E+01  8610   0.125E+01    0.626E-01
RMM:   2    -0.788719387267E+02   -0.39093E-01   -0.40808E-01  8611   0.274E+00    0.368E-01
RMM:   3    -0.788948342852E+02   -0.22896E-01   -0.53059E-02  9084   0.593E-01    0.117E+00
RMM:   4    -0.788755173749E+02    0.19317E-01   -0.46714E-03  8683   0.317E-01    0.330E-01
RMM:   5    -0.788746316225E+02    0.88575E-03   -0.12274E-03  8616   0.112E-01    0.339E-01
RMM:   6    -0.788739143894E+02    0.71723E-03   -0.15311E-03  8622   0.114E-01    0.283E-01
RMM:   7    -0.788728714181E+02    0.10430E-02   -0.44308E-03  8643   0.173E-01    0.160E-01
RMM:   8    -0.788725893277E+02    0.28209E-03   -0.10411E-03  8668   0.992E-02    0.845E-02
RMM:   9    -0.788724887556E+02    0.10057E-03   -0.10937E-04  8697   0.325E-02    0.533E-02
RMM:  10    -0.788724467275E+02    0.42028E-04   -0.18122E-05  5884   0.140E-02    0.397E-02
RMM:  11    -0.788724100569E+02    0.36671E-04   -0.80903E-05  8423   0.252E-02    0.203E-02
RMM:  12    -0.788724118647E+02   -0.18077E-05   -0.98841E-05  8656   0.258E-02
  33 F= -.78872412E+02 E0= -.78812125E+02  d E =-.419539E-02
 curvature: -48.37 expect dE=-0.377E-01 dE for cont linesearch -0.237E-04
 trial: gam= 0.36620 g(F)=  0.779E-03 g(S)=  0.000E+00 ort = 0.634E-04 (trialstep = 0.380E+01)
 search vector abs. value=  0.193E-02
 bond charge predicted
       N       E                     dE             d eps       ncg     rms          rms(c)
DAV:   1    -0.788730168730E+02   -0.60682E-03   -0.11673E+00  9730   0.269E+00    0.141E-01
RMM:   2    -0.788791579158E+02   -0.61410E-02   -0.15757E-02  8615   0.450E-01    0.550E-01
RMM:   3    -0.788750716251E+02    0.40863E-02   -0.17907E-03  9942   0.127E-01    0.209E-01
RMM:   4    -0.788745694826E+02    0.50214E-03   -0.36163E-04  8622   0.653E-02    0.127E-01
RMM:   5    -0.788743445624E+02    0.22492E-03   -0.10168E-04  8587   0.341E-02    0.665E-02
RMM:   6    -0.788743258047E+02    0.18758E-04   -0.16245E-04  8610   0.370E-02    0.631E-02
RMM:   7    -0.788742977326E+02    0.28072E-04   -0.15642E-04  8644   0.348E-02    0.416E-02
RMM:   8    -0.788742763435E+02    0.21389E-04   -0.35000E-05  7244   0.182E-02    0.173E-02
RMM:   9    -0.788742728161E+02    0.35274E-05   -0.64765E-06  5545   0.114E-02
  34 F= -.78874273E+02 E0= -.78813981E+02  d E =-.186095E-02
 trial-energy change:   -0.001861  1 .order   -0.001828   -0.003048   -0.000608
 step:   4.7465(harm=  4.7465)  dis= 0.00608  next Energy=   -78.874316 (dE=-0.190E-02)
 bond charge predicted
       N       E                     dE             d eps       ncg     rms          rms(c)
DAV:   1    -0.788742504654E+02    0.25878E-04   -0.72065E-02 11340   0.668E-01    0.354E-02
RMM:   2    -0.788744125814E+02   -0.16212E-03   -0.97102E-04  8616   0.109E-01    0.707E-02
RMM:   3    -0.788744432763E+02   -0.30695E-04   -0.98904E-05  8673   0.328E-02    0.821E-02
RMM:   4    -0.788743580102E+02    0.85266E-04   -0.23653E-05  6272   0.177E-02    0.365E-02
RMM:   5    -0.788743408813E+02    0.17129E-04   -0.97864E-06  5566   0.158E-02    0.163E-02
RMM:   6    -0.788743421515E+02   -0.12701E-05   -0.68486E-06  5572   0.102E-02
  35 F= -.78874342E+02 E0= -.78814041E+02  d E =-.193029E-02
 curvature:  -5.70 expect dE=-0.912E-02 dE for cont linesearch -0.188E-05
 trial: gam= 2.14066 g(F)=  0.160E-02 g(S)=  0.000E+00 ort =-0.252E-04 (trialstep = 0.745E+00)
 search vector abs. value=  0.103E-01
 bond charge predicted
       N       E                     dE             d eps       ncg     rms          rms(c)
DAV:   1    -0.788749348282E+02   -0.59395E-03   -0.28891E-01  8610   0.139E+00    0.738E-02
RMM:   2    -0.788753094012E+02   -0.37457E-03   -0.38407E-03  8611   0.211E-01    0.499E-02
RMM:   3    -0.788756671318E+02   -0.35773E-03   -0.31640E-04  8925   0.655E-02    0.148E-01
RMM:   4    -0.788754013803E+02    0.26575E-03   -0.67651E-05  8248   0.234E-02    0.881E-02
RMM:   5    -0.788752931894E+02    0.10819E-03   -0.31329E-05  7012   0.204E-02    0.301E-02
RMM:   6    -0.788752880860E+02    0.51034E-05   -0.22393E-05  6060   0.170E-02
  36 F= -.78875288E+02 E0= -.78814983E+02  d E =-.945935E-03
 trial-energy change:   -0.000946  1 .order   -0.000988   -0.001151   -0.000825
 step:   2.6256(harm=  2.6256)  dis= 0.00784  next Energy=   -78.876372 (dE=-0.203E-02)
 bond charge predicted
       N       E                     dE             d eps       ncg     rms          rms(c)
DAV:   1    -0.788741120191E+02    0.11812E-02   -0.18426E+00  8610   0.352E+00    0.179E-01
RMM:   2    -0.788768524673E+02   -0.27404E-02   -0.24471E-02  8611   0.541E-01    0.189E-01
RMM:   3    -0.788806483600E+02   -0.37959E-02   -0.23156E-03  9863   0.155E-01    0.501E-01
RMM:   4    -0.788769467083E+02    0.37017E-02   -0.59266E-04  8622   0.716E-02    0.186E-01
RMM:   5    -0.788764227604E+02    0.52395E-03   -0.19050E-04  8610   0.455E-02    0.761E-02
RMM:   6    -0.788764013724E+02    0.21388E-04   -0.17695E-04  8596   0.405E-02    0.684E-02
RMM:   7    -0.788763764815E+02    0.24891E-04   -0.18148E-04  8624   0.385E-02    0.532E-02
RMM:   8    -0.788763313063E+02    0.45175E-04   -0.41391E-05  7633   0.191E-02    0.179E-02
RMM:   9    -0.788763263864E+02    0.49199E-05   -0.61181E-06  5567   0.102E-02
  37 F= -.78876326E+02 E0= -.78815966E+02  d E =-.198423E-02
 curvature:  -8.77 expect dE=-0.366E-02 dE for cont linesearch -0.381E-04
 trial: gam=-0.05360 g(F)=  0.417E-03 g(S)=  0.000E+00 ort = 0.212E-03 (trialstep = 0.112E+01)
 search vector abs. value=  0.424E-03
 bond charge predicted
       N       E                     dE             d eps       ncg     rms          rms(c)
DAV:   1    -0.788766880800E+02   -0.35677E-03   -0.26571E-02 10010   0.410E-01    0.339E-02
RMM:   2    -0.788773951752E+02   -0.70710E-03   -0.47946E-04  8611   0.680E-02    0.203E-01
RMM:   3    -0.788767449546E+02    0.65022E-03   -0.79947E-05  8472   0.290E-02    0.460E-02
RMM:   4    -0.788767229033E+02    0.22051E-04   -0.22293E-05  6179   0.170E-02    0.303E-02
RMM:   5    -0.788767103650E+02    0.12538E-04   -0.82992E-06  5530   0.153E-02    0.107E-02
RMM:   6    -0.788767114302E+02   -0.10652E-05   -0.35064E-06  5569   0.723E-03
  38 F= -.78876711E+02 E0= -.78816363E+02  d E =-.385044E-03
 trial-energy change:   -0.000385  1 .order   -0.000372   -0.000455   -0.000289
 step:   3.0713(harm=  3.0713)  dis= 0.00203  next Energy=   -78.876950 (dE=-0.623E-03)
 bond charge predicted
       N       E                     dE             d eps       ncg     rms          rms(c)
DAV:   1    -0.788769166762E+02   -0.20631E-03   -0.80043E-02  9625   0.712E-01    0.591E-02
RMM:   2    -0.788789635721E+02   -0.20469E-02   -0.14519E-03  8614   0.118E-01    0.343E-01
RMM:   3    -0.788770951912E+02    0.18684E-02   -0.23397E-04  8608   0.477E-02    0.849E-02
RMM:   4    -0.788770137098E+02    0.81481E-04   -0.81360E-05  8517   0.300E-02    0.512E-02
RMM:   5    -0.788769743929E+02    0.39317E-04   -0.14615E-05  5778   0.146E-02    0.195E-02
RMM:   6    -0.788769737994E+02    0.59357E-06   -0.95208E-06  5596   0.137E-02
  39 F= -.78876974E+02 E0= -.78816654E+02  d E =-.647413E-03
 curvature:  -1.60 expect dE=-0.634E-03 dE for cont linesearch -0.875E-08
 trial: gam= 0.92307 g(F)=  0.395E-03 g(S)=  0.000E+00 ort =-0.152E-05 (trialstep = 0.851E+00)
 search vector abs. value=  0.754E-03
 bond charge predicted
       N       E                     dE             d eps       ncg     rms          rms(c)
DAV:   1    -0.788772363314E+02   -0.26194E-03   -0.21313E-02 11060   0.364E-01    0.210E-02
RMM:   2    -0.788772957356E+02   -0.59404E-04   -0.33113E-04  8602   0.612E-02    0.437E-02
RMM:   3    -0.788772978415E+02   -0.21058E-05   -0.26783E-05  6253   0.195E-02
  40 F= -.78877298E+02 E0= -.78816968E+02  d E =-.324042E-03
 trial-energy change:   -0.000324  1 .order   -0.000285   -0.000335   -0.000235
 step:   2.8619(harm=  2.8619)  dis= 0.00231  next Energy=   -78.877537 (dE=-0.563E-03)
 bond charge predicted
       N       E                     dE             d eps       ncg     rms          rms(c)
DAV:   1    -0.788775283714E+02   -0.23264E-03   -0.11936E-01  9275   0.856E-01    0.494E-02
RMM:   2    -0.788777060724E+02   -0.17770E-03   -0.17075E-03  8614   0.136E-01    0.498E-02
RMM:   3    -0.788777026499E+02    0.34224E-05   -0.14672E-04  8660   0.482E-02    0.445E-02
RMM:   4    -0.788778587371E+02   -0.15609E-03   -0.32862E-05  7008   0.165E-02    0.111E-01
RMM:   5    -0.788776709730E+02    0.18776E-03   -0.16862E-05  5854   0.164E-02    0.212E-02
RMM:   6    -0.788776703339E+02    0.63907E-06   -0.22091E-05  6160   0.172E-02
  41 F= -.78877670E+02 E0= -.78817412E+02  d E =-.696535E-03
 curvature:  -2.74 expect dE=-0.289E-03 dE for cont linesearch -0.369E-04
 trial: gam= 0.07235 g(F)=  0.106E-03 g(S)=  0.000E+00 ort = 0.101E-03 (trialstep = 0.125E+01)
 search vector abs. value=  0.124E-03
 bond charge predicted
       N       E                     dE             d eps       ncg     rms          rms(c)
DAV:   1    -0.788777973937E+02   -0.12642E-03   -0.57659E-03 10325   0.212E-01    0.241E-02
RMM:   2    -0.788779431771E+02   -0.14578E-03   -0.15623E-04  8597   0.420E-02    0.876E-02
RMM:   3    -0.788778909932E+02    0.52184E-04   -0.34736E-05  7050   0.194E-02    0.757E-02
RMM:   4    -0.788778024851E+02    0.88508E-04   -0.94252E-06  5628   0.119E-02    0.120E-02
RMM:   5    -0.788778013318E+02    0.11533E-05   -0.35968E-06  5516   0.847E-03
  42 F= -.78877801E+02 E0= -.78817538E+02  d E =-.130998E-03
 ZBRENT: can't locate minimum, use default step
 trial-energy change:   -0.000131  1 .order   -0.000140   -0.000141   -0.000139
 step:   5.0117(harm= 70.4678)  dis= 0.00145  next Energy=   -78.881645 (dE=-0.398E-02)
 bond charge predicted
       N       E                     dE             d eps       ncg     rms          rms(c)
DAV:   1    -0.788781277785E+02   -0.32529E-03   -0.50954E-02  9205   0.616E-01    0.390E-02
RMM:   2    -0.788782251682E+02   -0.97390E-04   -0.73690E-04  8599   0.855E-02    0.467E-02
RMM:   3    -0.788783511216E+02   -0.12595E-03   -0.59899E-05  8065   0.267E-02    0.987E-02
RMM:   4    -0.788782146866E+02    0.13643E-03   -0.24337E-05  6415   0.183E-02    0.368E-02
RMM:   5    -0.788781992720E+02    0.15415E-04   -0.12793E-05  5636   0.171E-02    0.189E-02
RMM:   6    -0.788781968211E+02    0.24509E-05   -0.67589E-06  5484   0.115E-02
  43 F= -.78878197E+02 E0= -.78817925E+02  d E =-.526487E-03
 curvature:  -4.09 expect dE=-0.389E-03 dE for cont linesearch -0.373E-03
 ZBRENT: increasing intervall
 opt :  12.5292  next Energy=   -78.878962 (dE=-0.129E-02)
 bond charge predicted
       N       E                     dE             d eps       ncg     rms          rms(c)
DAV:   1    -0.788785376636E+02   -0.33839E-03   -0.20344E-01  8610   0.123E+00    0.742E-02
RMM:   2    -0.788790205212E+02   -0.48286E-03   -0.29983E-03  8611   0.172E-01    0.116E-01
RMM:   3    -0.788791565144E+02   -0.13599E-03   -0.22184E-04  8812   0.495E-02    0.147E-01
RMM:   4    -0.788788693976E+02    0.28712E-03   -0.91846E-05  8567   0.335E-02    0.597E-02
RMM:   5    -0.788788195175E+02    0.49880E-04   -0.35556E-05  7301   0.218E-02    0.252E-02
RMM:   6    -0.788788196051E+02   -0.87513E-07   -0.23381E-05  6279   0.193E-02
  44 F= -.78878820E+02 E0= -.78818533E+02  d E =-.114927E-02
 curvature:  -8.40 expect dE=-0.561E-03 dE for cont linesearch -0.404E-03
 ZBRENT: increasing intervall
 opt :  27.5642  next Energy=   -78.879543 (dE=-0.187E-02)
 bond charge predicted
       N       E                     dE             d eps       ncg     rms          rms(c)
DAV:   1    -0.788784143841E+02    0.40513E-03   -0.81423E-01  8610   0.246E+00    0.146E-01
RMM:   2    -0.788797360373E+02   -0.13217E-02   -0.11571E-02  8610   0.333E-01    0.144E-01
RMM:   3    -0.788824254367E+02   -0.26894E-02   -0.92664E-04  8682   0.103E-01    0.423E-01
RMM:   4    -0.788796913915E+02    0.27340E-02   -0.36557E-04  8608   0.609E-02    0.112E-01
RMM:   5    -0.788795508251E+02    0.14057E-03   -0.12793E-04  8610   0.388E-02    0.708E-02
RMM:   6    -0.788795013842E+02    0.49441E-04   -0.85027E-05  8521   0.313E-02    0.430E-02
RMM:   7    -0.788795085538E+02   -0.71696E-05   -0.49494E-05  8149   0.240E-02
  45 F= -.78879509E+02 E0= -.78819189E+02  d E =-.183822E-02
 curvature: -15.06 expect dE=-0.191E-02 dE for cont linesearch -0.841E-04
 trial: gam= 0.00000 g(F)=  0.127E-03 g(S)=  0.000E+00 ort = 0.263E-04 (trialstep = 0.639E+01)
 search vector abs. value=  0.127E-03
 bond charge predicted
       N       E                     dE             d eps       ncg     rms          rms(c)
DAV:   1    -0.788798035731E+02   -0.30219E-03   -0.19422E-01  9870   0.116E+00    0.715E-02
RMM:   2    -0.788808484661E+02   -0.10449E-02   -0.28608E-03  8610   0.175E-01    0.224E-01
RMM:   3    -0.788802299116E+02    0.61855E-03   -0.28663E-04  8754   0.577E-02    0.120E-01
RMM:   4    -0.788800805590E+02    0.14935E-03   -0.11152E-04  8591   0.354E-02    0.701E-02
RMM:   5    -0.788800111545E+02    0.69405E-04   -0.31087E-05  6943   0.197E-02    0.296E-02
RMM:   6    -0.788800083495E+02    0.28049E-05   -0.22913E-05  5996   0.195E-02
  46 F= -.78880008E+02 E0= -.78819721E+02  d E =-.499796E-03
 trial-energy change:   -0.000500  1 .order   -0.000550   -0.000808   -0.000292
 step:  10.0043(harm= 10.0043)  dis= 0.00515  next Energy=   -78.880142 (dE=-0.633E-03)
 bond charge predicted
       N       E                     dE             d eps       ncg     rms          rms(c)
DAV:   1    -0.788799752381E+02    0.35916E-04   -0.62179E-02 10220   0.658E-01    0.465E-02
RMM:   2    -0.788812922561E+02   -0.13170E-02   -0.10463E-03  8621   0.104E-01    0.270E-01
RMM:   3    -0.788801023090E+02    0.11899E-02   -0.14769E-04  8600   0.384E-02    0.638E-02
RMM:   4    -0.788800497668E+02    0.52542E-04   -0.56567E-05  8156   0.269E-02    0.345E-02
RMM:   5    -0.788800405105E+02    0.92563E-05   -0.11112E-05  5718   0.128E-02
  47 F= -.78880041E+02 E0= -.78819765E+02  d E =-.531957E-03
 curvature:  -5.00 expect dE=-0.152E-02 dE for cont linesearch -0.446E-05
 trial: gam= 2.48692 g(F)=  0.304E-03 g(S)=  0.000E+00 ort =-0.106E-04 (trialstep = 0.870E+00)
 search vector abs. value=  0.103E-02
 bond charge predicted
       N       E                     dE             d eps       ncg     rms          rms(c)
DAV:   1    -0.788802052018E+02   -0.15543E-03   -0.12877E-02 11375   0.303E-01    0.307E-02
RMM:   2    -0.788803500679E+02   -0.14487E-03   -0.24095E-04  8615   0.533E-02    0.858E-02
RMM:   3    -0.788803237424E+02    0.26325E-04   -0.36666E-05  7223   0.187E-02    0.830E-02
RMM:   4    -0.788802226761E+02    0.10107E-03   -0.16381E-05  5872   0.163E-02    0.224E-02
RMM:   5    -0.788802216595E+02    0.10166E-05   -0.68228E-06  5556   0.121E-02
  48 F= -.78880222E+02 E0= -.78819980E+02  d E =-.181149E-03
 trial-energy change:   -0.000181  1 .order   -0.000193   -0.000242   -0.000143
 step:   2.1381(harm=  2.1381)  dis= 0.00167  next Energy=   -78.880337 (dE=-0.297E-03)
 bond charge predicted
       N       E                     dE             d eps       ncg     rms          rms(c)
DAV:   1    -0.788802790981E+02   -0.56422E-04   -0.27143E-02  9590   0.437E-01    0.399E-02
RMM:   2    -0.788803365821E+02   -0.57484E-04   -0.44513E-04  8608   0.691E-02    0.495E-02
RMM:   3    -0.788805515058E+02   -0.21492E-03   -0.61363E-05  8306   0.271E-02    0.124E-01
RMM:   4    -0.788803239178E+02    0.22759E-03   -0.25867E-05  6614   0.170E-02    0.381E-02
RMM:   5    -0.788803052821E+02    0.18636E-04   -0.10685E-05  5644   0.151E-02    0.186E-02
RMM:   6    -0.788803071017E+02   -0.18197E-05   -0.74089E-06  5600   0.115E-02
  49 F= -.78880307E+02 E0= -.78820081E+02  d E =-.266591E-03
 curvature:  -3.98 expect dE=-0.545E-03 dE for cont linesearch -0.363E-06
 trial: gam= 0.38141 g(F)=  0.137E-03 g(S)=  0.000E+00 ort =-0.971E-05 (trialstep = 0.112E+01)
 search vector abs. value=  0.280E-03
 bond charge predicted
       N       E                     dE             d eps       ncg     rms          rms(c)
DAV:   1    -0.788804296184E+02   -0.12434E-03   -0.73591E-03  9240   0.231E-01    0.182E-02
RMM:   2    -0.788804574709E+02   -0.27852E-04   -0.11176E-04  8330   0.345E-02    0.316E-02
RMM:   3    -0.788804640323E+02   -0.65615E-05   -0.93670E-06  5499   0.108E-02
  50 F= -.78880464E+02 E0= -.78820202E+02  d E =-.156931E-03
 ZBRENT: can't locate minimum, use default step
 trial-energy change:   -0.000157  1 .order   -0.000143   -0.000150   -0.000137
 step:   4.4949(harm= 12.9583)  dis= 0.00267  next Energy=   -78.881170 (dE=-0.862E-03)
 bond charge predicted
       N       E                     dE             d eps       ncg     rms          rms(c)
DAV:   1    -0.788807319050E+02   -0.27443E-03   -0.66323E-02  8610   0.686E-01    0.556E-02
RMM:   2    -0.788808819709E+02   -0.15007E-03   -0.88805E-04  8607   0.937E-02    0.755E-02
RMM:   3    -0.788810447673E+02   -0.16280E-03   -0.88434E-05  8503   0.332E-02    0.122E-01
RMM:   4    -0.788808761474E+02    0.16862E-03   -0.55171E-05  7673   0.234E-02    0.612E-02
RMM:   5    -0.788808231598E+02    0.52988E-04   -0.23462E-05  6139   0.188E-02    0.284E-02
RMM:   6    -0.788808185752E+02    0.45846E-05   -0.13699E-05  5683   0.169E-02
  51 F= -.78880819E+02 E0= -.78820566E+02  d E =-.511473E-03
 curvature:  -6.66 expect dE=-0.533E-03 dE for cont linesearch -0.289E-03
 ZBRENT: increasing intervall
 opt :  11.2373  next Energy=   -78.881486 (dE=-0.118E-02)
 bond charge predicted
       N       E                     dE             d eps       ncg     rms          rms(c)
DAV:   1    -0.788810432148E+02   -0.22006E-03   -0.26327E-01  8610   0.137E+00    0.957E-02
RMM:   2    -0.788813642449E+02   -0.32103E-03   -0.32146E-03  8609   0.182E-01    0.709E-02
RMM:   3    -0.788830478606E+02   -0.16836E-02   -0.34140E-04  8714   0.572E-02    0.322E-01
RMM:   4    -0.788814535904E+02    0.15943E-02   -0.15558E-04  8613   0.345E-02    0.765E-02
RMM:   5    -0.788813637289E+02    0.89862E-04   -0.54281E-05  7861   0.240E-02    0.350E-02
RMM:   6    -0.788813583151E+02    0.54138E-05   -0.20331E-05  6034   0.176E-02
  52 F= -.78881358E+02 E0= -.78821026E+02  d E =-.105121E-02
 curvature: -15.36 expect dE=-0.952E-03 dE for cont linesearch -0.272E-03
 ZBRENT: increasing intervall
 opt :  24.7221  next Energy=   -78.881771 (dE=-0.146E-02)
 bond charge predicted
       N       E                     dE             d eps       ncg     rms          rms(c)
DAV:   1    -0.788804705482E+02    0.89318E-03   -0.10520E+00  8610   0.273E+00    0.192E-01
RMM:   2    -0.788822229444E+02   -0.17524E-02   -0.12961E-02  8610   0.366E-01    0.219E-01
RMM:   3    -0.788843979958E+02   -0.21751E-02   -0.11374E-03  8925   0.110E-01    0.413E-01
RMM:   4    -0.788821093278E+02    0.22887E-02   -0.50695E-04  8618   0.756E-02    0.164E-01
RMM:   5    -0.788817481702E+02    0.36116E-03   -0.25186E-04  8604   0.544E-02    0.726E-02
RMM:   6    -0.788817814714E+02   -0.33301E-04   -0.12920E-04  8606   0.392E-02    0.747E-02
RMM:   7    -0.788816935270E+02    0.87944E-04   -0.49957E-05  7932   0.253E-02    0.266E-02
RMM:   8    -0.788816807775E+02    0.12750E-04   -0.10144E-05  5621   0.137E-02    0.857E-03
RMM:   9    -0.788816820352E+02   -0.12578E-05   -0.29710E-06  5579   0.829E-03
  53 F= -.78881682E+02 E0= -.78821255E+02  d E =-.137493E-02
 curvature: -23.28 expect dE=-0.460E-02 dE for cont linesearch -0.206E-04
 trial: gam= 1.72829 g(F)=  0.198E-03 g(S)=  0.000E+00 ort =-0.157E-04 (trialstep = 0.167E+01)
 search vector abs. value=  0.979E-03
 bond charge predicted
       N       E                     dE             d eps       ncg     rms          rms(c)
DAV:   1    -0.788818681221E+02   -0.18734E-03   -0.58273E-02  9415   0.647E-01    0.540E-02
RMM:   2    -0.788819866981E+02   -0.11858E-03   -0.71722E-04  8594   0.780E-02    0.676E-02
RMM:   3    -0.788822139601E+02   -0.22726E-03   -0.68006E-05  8020   0.267E-02    0.138E-01
RMM:   4    -0.788819680363E+02    0.24592E-03   -0.43949E-05  7587   0.218E-02    0.556E-02
RMM:   5    -0.788819246449E+02    0.43391E-04   -0.19272E-05  5876   0.182E-02    0.222E-02
RMM:   6    -0.788819219753E+02    0.26696E-05   -0.92710E-06  5658   0.143E-02
  54 F= -.78881922E+02 E0= -.78821497E+02  d E =-.239940E-03
 ZBRENT: can't locate minimum, use default step
 trial-energy change:   -0.000240  1 .order   -0.000276   -0.000285   -0.000267
 step:   6.6807(harm= 27.3958)  dis= 0.00655  next Energy=   -78.884016 (dE=-0.233E-02)
 bond charge predicted
       N       E                     dE             d eps       ncg     rms          rms(c)
DAV:   1    -0.788817481809E+02    0.17646E-03   -0.52284E-01  8610   0.194E+00    0.164E-01
RMM:   2    -0.788841049626E+02   -0.23568E-02   -0.65541E-03  8610   0.237E-01    0.340E-01
RMM:   3    -0.788833380365E+02    0.76693E-03   -0.58493E-04  8610   0.778E-02    0.279E-01
RMM:   4    -0.788825891628E+02    0.74887E-03   -0.38402E-04  8616   0.631E-02    0.162E-01
RMM:   5    -0.788822529150E+02    0.33625E-03   -0.18170E-04  8610   0.478E-02    0.721E-02
RMM:   6    -0.788822278347E+02    0.25080E-04   -0.88770E-05  8591   0.322E-02    0.532E-02
RMM:   7    -0.788821854790E+02    0.42356E-04   -0.33012E-05  7092   0.214E-02    0.190E-02
RMM:   8    -0.788821856738E+02   -0.19485E-06   -0.78228E-06  5652   0.132E-02
  55 F= -.78882186E+02 E0= -.78821757E+02  d E =-.503639E-03
 curvature: -27.68 expect dE=-0.144E-01 dE for cont linesearch -0.761E-06
 trial: gam= 2.37290 g(F)=  0.521E-03 g(S)=  0.000E+00 ort = 0.519E-05 (trialstep = 0.432E+00)
 search vector abs. value=  0.606E-02
 bond charge predicted
       N       E                     dE             d eps       ncg     rms          rms(c)
DAV:   1    -0.788823515486E+02   -0.16607E-03   -0.15190E-02 11060   0.329E-01    0.294E-02
RMM:   2    -0.788825339986E+02   -0.18245E-03   -0.19844E-04  8554   0.478E-02    0.102E-01
RMM:   3    -0.788823799895E+02    0.15401E-03   -0.23658E-05  6322   0.155E-02    0.291E-02
RMM:   4    -0.788823737547E+02    0.62348E-05   -0.66151E-06  5631   0.131E-02
  56 F= -.78882374E+02 E0= -.78821948E+02  d E =-.188081E-03
 ZBRENT: can't locate minimum, use default step
 trial-energy change:   -0.000188  1 .order   -0.000214   -0.000230   -0.000199
 step:   1.7276(harm=  3.1452)  dis= 0.00385  next Energy=   -78.883024 (dE=-0.838E-03)
 bond charge predicted
       N       E                     dE             d eps       ncg     rms          rms(c)
DAV:   1    -0.788826217608E+02   -0.24177E-03   -0.13698E-01  8645   0.987E-01    0.877E-02
RMM:   2    -0.788828217424E+02   -0.19998E-03   -0.16562E-03  8609   0.132E-01    0.774E-02
RMM:   3    -0.788829015766E+02   -0.79834E-04   -0.18871E-04  8610   0.525E-02    0.101E-01
RMM:   4    -0.788837011298E+02   -0.79955E-03   -0.10579E-04  8590   0.298E-02    0.239E-01
RMM:   5    -0.788827681814E+02    0.93295E-03   -0.65820E-05  8034   0.221E-02    0.216E-02
RMM:   6    -0.788827632749E+02    0.49065E-05   -0.16631E-05  5907   0.168E-02
  57 F= -.78882763E+02 E0= -.78822366E+02  d E =-.577601E-03
 curvature: -13.00 expect dE=-0.121E-02 dE for cont linesearch -0.133E-03
 ZBRENT: increasing intervall
 opt :   4.3189  next Energy=   -78.882864 (dE=-0.678E-03)
 bond charge predicted
       N       E                     dE             d eps       ncg     rms          rms(c)
DAV:   1    -0.788821395516E+02    0.62863E-03   -0.54574E-01  8610   0.197E+00    0.168E-01
RMM:   2    -0.788827526352E+02   -0.61308E-03   -0.63945E-03  8610   0.262E-01    0.114E-01
RMM:   3    -0.788891601517E+02   -0.64075E-02   -0.91492E-04  8638   0.966E-02    0.634E-01
RMM:   4    -0.788829054127E+02    0.62547E-02   -0.42564E-04  8618   0.615E-02    0.104E-01
RMM:   5    -0.788826989435E+02    0.20647E-03   -0.15538E-04  8607   0.425E-02    0.408E-02
RMM:   6    -0.788827119773E+02   -0.13034E-04   -0.35106E-05  7197   0.199E-02    0.430E-02
RMM:   7    -0.788826845124E+02    0.27465E-04   -0.12889E-05  5678   0.165E-02    0.142E-02
RMM:   8    -0.788826849411E+02   -0.42862E-06   -0.40133E-06  5545   0.922E-03
  58 F= -.78882685E+02 E0= -.78822333E+02  d E =-.499267E-03
 curvature:  -9.82 expect dE=-0.554E-02 dE for cont linesearch -0.913E-04
 trial: gam= 0.00000 g(F)=  0.565E-03 g(S)=  0.000E+00 ort =-0.237E-03 (trialstep = 0.121E+01)
 search vector abs. value=  0.565E-03
 bond charge predicted
       N       E                     dE             d eps       ncg     rms          rms(c)
DAV:   1    -0.788830896473E+02   -0.40513E-03   -0.29094E-02 10850   0.453E-01    0.524E-02
RMM:   2    -0.788832964861E+02   -0.20684E-03   -0.59922E-04  8600   0.647E-02    0.107E-01
RMM:   3    -0.788834991171E+02   -0.20263E-03   -0.94102E-05  8466   0.295E-02    0.158E-01
RMM:   4    -0.788831371178E+02    0.36200E-03   -0.50247E-05  7865   0.215E-02    0.456E-02
RMM:   5    -0.788830992616E+02    0.37856E-04   -0.14468E-05  5801   0.149E-02    0.155E-02
RMM:   6    -0.788831021353E+02   -0.28737E-05   -0.79818E-06  5675   0.119E-02
  59 F= -.78883102E+02 E0= -.78822733E+02  d E =-.417194E-03
 trial-energy change:   -0.000417  1 .order   -0.000406   -0.000683   -0.000129
 step:   1.4901(harm=  1.4901)  dis= 0.00194  next Energy=   -78.883106 (dE=-0.421E-03)
 bond charge predicted
       N       E                     dE             d eps       ncg     rms          rms(c)
DAV:   1    -0.788831115912E+02   -0.12330E-04   -0.15510E-03 10570   0.108E-01    0.139E-02
RMM:   2    -0.788831198511E+02   -0.82599E-05   -0.40288E-05  6072   0.193E-02
  60 F= -.78883120E+02 E0= -.78822747E+02  d E =-.434910E-03
 curvature:  -0.75 expect dE=-0.963E-04 dE for cont linesearch -0.156E-05
 trial: gam= 0.28986 g(F)=  0.129E-03 g(S)=  0.000E+00 ort =-0.344E-04 (trialstep = 0.127E+01)
 search vector abs. value=  0.157E-03
 bond charge predicted
       N       E                     dE             d eps       ncg     rms          rms(c)
DAV:   1    -0.788832388591E+02   -0.12727E-03   -0.12822E-02  9940   0.301E-01    0.227E-02
RMM:   2    -0.788846355733E+02   -0.13967E-02   -0.32322E-04  8611   0.551E-02    0.292E-01
RMM:   3    -0.788832689205E+02    0.13667E-02   -0.92478E-05  8425   0.275E-02    0.148E-02
RMM:   4    -0.788832560883E+02    0.12832E-04   -0.91215E-06  5693   0.133E-02    0.127E-02
RMM:   5    -0.788832542185E+02    0.18698E-05   -0.34563E-06  5487   0.949E-03
  61 F= -.78883254E+02 E0= -.78822867E+02  d E =-.134367E-03
 ZBRENT: can't locate minimum, use default step
 trial-energy change:   -0.000134  1 .order   -0.000142   -0.000151   -0.000133
 step:   5.0619(harm= 10.8545)  dis= 0.00213  next Energy=   -78.883767 (dE=-0.647E-03)
 bond charge predicted
       N       E                     dE             d eps       ncg     rms          rms(c)
DAV:   1    -0.788834200157E+02   -0.16393E-03   -0.11362E-01  9975   0.888E-01    0.396E-02
RMM:   2    -0.788836315759E+02   -0.21156E-03   -0.15831E-03  8611   0.132E-01    0.677E-02
RMM:   3    -0.788837215082E+02   -0.89932E-04   -0.13000E-04  8789   0.397E-02    0.992E-02
RMM:   4    -0.788835958699E+02    0.12564E-03   -0.32724E-05  7002   0.189E-02    0.464E-02
RMM:   5    -0.788835621343E+02    0.33736E-04   -0.11381E-05  5649   0.148E-02    0.182E-02
RMM:   6    -0.788835585532E+02    0.35810E-05   -0.10196E-05  5575   0.133E-02
  62 F= -.78883559E+02 E0= -.78823143E+02  d E =-.438702E-03
 curvature:  -4.53 expect dE=-0.378E-03 dE for cont linesearch -0.976E-04
 trial: gam= 0.02892 g(F)=  0.835E-04 g(S)=  0.000E+00 ort = 0.581E-04 (trialstep = 0.202E+01)
 search vector abs. value=  0.870E-04
 bond charge predicted
       N       E                     dE             d eps       ncg     rms          rms(c)
DAV:   1    -0.788836353718E+02   -0.73238E-04   -0.15410E-02 11375   0.330E-01    0.289E-02
RMM:   2    -0.788840996384E+02   -0.46427E-03   -0.32049E-04  8600   0.561E-02    0.161E-01
RMM:   3    -0.788836928787E+02    0.40676E-03   -0.51200E-05  7812   0.219E-02    0.525E-02
RMM:   4    -0.788836529211E+02    0.39958E-04   -0.21554E-05  6099   0.185E-02    0.193E-02
RMM:   5    -0.788836487833E+02    0.41378E-05   -0.61246E-06  5478   0.128E-02
  63 F= -.78883649E+02 E0= -.78823260E+02  d E =-.902301E-04
 trial-energy change:   -0.000090  1 .order   -0.000104   -0.000172   -0.000035
 step:   2.5416(harm=  2.5416)  dis= 0.00085  next Energy=   -78.883667 (dE=-0.108E-03)
 bond charge predicted
       N       E                     dE             d eps       ncg     rms          rms(c)
DAV:   1    -0.788836489479E+02    0.39732E-05   -0.10371E-03 11375   0.870E-02    0.133E-02
RMM:   2    -0.788837042977E+02   -0.55350E-04   -0.25808E-05  5954   0.168E-02    0.583E-02
RMM:   3    -0.788836744242E+02    0.29874E-04   -0.91113E-06  5601   0.135E-02    0.394E-02
RMM:   4    -0.788836489251E+02    0.25499E-04   -0.35664E-06  5544   0.752E-03    0.831E-03
RMM:   5    -0.788836481050E+02    0.82007E-06   -0.13125E-06  5490   0.565E-03
  64 F= -.78883648E+02 E0= -.78823260E+02  d E =-.895518E-04
 curvature:  -1.30 expect dE=-0.112E-03 dE for cont linesearch -0.327E-08
 trial: gam= 1.06010 g(F)=  0.866E-04 g(S)=  0.000E+00 ort =-0.468E-06 (trialstep = 0.101E+01)
 search vector abs. value=  0.183E-03
 reached required accuracy - stopping structural energy minimisation
 writing wavefunctions
