 running on   20 total cores
 distrk:  each k-point on   20 cores,    1 groups
 distr:  one band on    1 cores,   20 groups
 using from now: INCAR     
 vasp.5.4.1 05Feb16 (build Nov 22 2018 20:17:51) complex                        
  
 POSCAR found type information on POSCAR  Pd H 
 POSCAR found :  2 types and       5 ions
 scaLAPACK will be used

 ----------------------------------------------------------------------------- 
|                                                                             |
|           W    W    AA    RRRRR   N    N  II  N    N   GGGG   !!!           |
|           W    W   A  A   R    R  NN   N  II  NN   N  G    G  !!!           |
|           W    W  A    A  R    R  N N  N  II  N N  N  G       !!!           |
|           W WW W  AAAAAA  RRRRR   N  N N  II  N  N N  G  GGG   !            |
|           WW  WW  A    A  R   R   N   NN  II  N   NN  G    G                |
|           W    W  A    A  R    R  N    N  II  N    N   GGGG   !!!           |
|                                                                             |
|      For optimal performance we recommend to set                            |
|        NCORE= 4 - approx SQRT( number of cores)                             |
|      NCORE specifies how many cores store one orbital (NPAR=cpu/NCORE).     |
|      This setting can  greatly improve the performance of VASP for DFT.     |
|      The default, NPAR=number of cores might be grossly inefficient         |
|      on modern multi-core architectures or massively parallel machines.     |
|      Do your own testing !!!!                                               |
|      Unfortunately you need to use the default for GW and RPA calculations. |
|      (for HF NCORE is supported but not extensively tested yet)             |
|                                                                             |
 ----------------------------------------------------------------------------- 

 LDA part: xc-table for Ceperly-Alder, standard interpolation
 POSCAR found type information on POSCAR  Pd H 
 POSCAR found :  2 types and       5 ions
 POSCAR, INCAR and KPOINTS ok, starting setup
 WARNING: small aliasing (wrap around) errors must be expected
 FFT: planning ...
 WAVECAR not read
 entering main loop
       N       E                     dE             d eps       ncg     rms          rms(c)
DAV:   1     0.293549637716E+03    0.29355E+03   -0.18934E+04  4480   0.998E+02
DAV:   2    -0.190829625684E+02   -0.31263E+03   -0.27328E+03  4480   0.267E+02
DAV:   3    -0.253709579491E+02   -0.62880E+01   -0.62526E+01  6360   0.440E+01
DAV:   4    -0.254868881865E+02   -0.11593E+00   -0.11592E+00  6020   0.530E+00
DAV:   5    -0.254872448423E+02   -0.35666E-03   -0.35663E-03  6560   0.297E-01    0.653E+00
DAV:   6    -0.244406855911E+02    0.10466E+01   -0.19343E+00  5980   0.134E+01    0.116E+00
DAV:   7    -0.244169792380E+02    0.23706E-01   -0.89897E-02  5080   0.172E+00    0.608E-01
DAV:   8    -0.244064300104E+02    0.10549E-01   -0.87283E-03  6120   0.632E-01    0.158E-01
DAV:   9    -0.244062497959E+02    0.18021E-03   -0.54163E-04  5400   0.115E-01    0.477E-02
DAV:  10    -0.244062798543E+02   -0.30058E-04   -0.91671E-05  5960   0.698E-02    0.121E-02
DAV:  11    -0.244062884959E+02   -0.86416E-05   -0.96129E-06  5380   0.225E-02
   1 F= -.24406288E+02 E0= -.24406086E+02  d E =-.405215E-03
 Finite differences POTIM= 0.02000 DOF=   3
 bond charge predicted
       N       E                     dE             d eps       ncg     rms          rms(c)
DAV:   1    -0.244056346934E+02    0.64516E-03   -0.98127E-02 15160   0.885E-01    0.795E-02
DAV:   2    -0.244056831246E+02   -0.48431E-04   -0.12049E-03 20000   0.245E-01    0.724E-02
DAV:   3    -0.244056517528E+02    0.31372E-04   -0.11875E-04 22920   0.185E-01    0.474E-02
DAV:   4    -0.244056230585E+02    0.28694E-04   -0.70931E-05 18500   0.736E-02    0.769E-03
DAV:   5    -0.244056217819E+02    0.12767E-05   -0.53265E-06 12680   0.148E-02
   2 F= -.24405622E+02 E0= -.24405413E+02  d E =-.417928E-03
 Finite differences progress:
  Degree of freedom:   1/  3
  Displacement:        1/  2
  Total:               1/  6
 bond charge predicted
       N       E                     dE             d eps       ncg     rms          rms(c)
DAV:   1    -0.244058500136E+02   -0.22696E-03   -0.23375E-01 15200   0.130E+00    0.159E-01
DAV:   2    -0.244058753514E+02   -0.25338E-04   -0.30803E-03 19880   0.433E-01    0.146E-01
DAV:   3    -0.244057389794E+02    0.13637E-03   -0.47329E-04 22700   0.373E-01    0.941E-02
DAV:   4    -0.244056283398E+02    0.11064E-03   -0.28499E-04 17740   0.148E-01    0.165E-02
DAV:   5    -0.244056221437E+02    0.61961E-05   -0.23486E-05 18980   0.319E-02
   3 F= -.24405622E+02 E0= -.24405413E+02  d E =-.418109E-03
 Finite differences progress:
  Degree of freedom:   1/  3
  Displacement:        2/  2
  Total:               2/  6
 bond charge predicted
       N       E                     dE             d eps       ncg     rms          rms(c)
DAV:   1    -0.244052450046E+02    0.38334E-03   -0.19670E-01 15160   0.115E+00    0.106E-01
DAV:   2    -0.244055230558E+02   -0.27805E-03   -0.21675E-03 19700   0.269E-01    0.824E-02
DAV:   3    -0.244055579342E+02   -0.34878E-04   -0.18037E-04 23020   0.224E-01    0.712E-02
DAV:   4    -0.244056390134E+02   -0.81079E-04   -0.12863E-04 17700   0.121E-01    0.922E-03
DAV:   5    -0.244056387469E+02    0.26654E-06   -0.15272E-05 17940   0.229E-02
   4 F= -.24405639E+02 E0= -.24405431E+02  d E =-.414709E-03
 Finite differences progress:
  Degree of freedom:   2/  3
  Displacement:        1/  2
  Total:               3/  6
 bond charge predicted
       N       E                     dE             d eps       ncg     rms          rms(c)
DAV:   1    -0.244058381163E+02   -0.19910E-03   -0.26063E-01 14920   0.141E+00    0.159E-01
DAV:   2    -0.244058848726E+02   -0.46756E-04   -0.33820E-03 19300   0.443E-01    0.146E-01
DAV:   3    -0.244057505302E+02    0.13434E-03   -0.47726E-04 23400   0.372E-01    0.946E-02
DAV:   4    -0.244056330488E+02    0.11748E-03   -0.28483E-04 17280   0.148E-01    0.164E-02
DAV:   5    -0.244056254068E+02    0.76421E-05   -0.23520E-05 19600   0.317E-02
   5 F= -.24405625E+02 E0= -.24405417E+02  d E =-.417798E-03
 Finite differences progress:
  Degree of freedom:   2/  3
  Displacement:        2/  2
  Total:               4/  6
 bond charge predicted
       N       E                     dE             d eps       ncg     rms          rms(c)
DAV:   1    -0.244055882662E+02    0.44783E-04   -0.19757E-01 14960   0.117E+00    0.106E-01
DAV:   2    -0.244057032469E+02   -0.11498E-03   -0.21601E-03 19660   0.279E-01    0.853E-02
DAV:   3    -0.244056818227E+02    0.21424E-04   -0.17893E-04 23200   0.226E-01    0.690E-02
DAV:   4    -0.244056343381E+02    0.47485E-04   -0.12958E-04 17460   0.112E-01    0.914E-03
DAV:   5    -0.244056299898E+02    0.43482E-05   -0.14747E-05 18060   0.221E-02
   6 F= -.24405630E+02 E0= -.24405421E+02  d E =-.417916E-03
 Finite differences progress:
  Degree of freedom:   3/  3
  Displacement:        1/  2
  Total:               5/  6
 bond charge predicted
       N       E                     dE             d eps       ncg     rms          rms(c)
DAV:   1    -0.244058600840E+02   -0.22575E-03   -0.23040E-01 15100   0.128E+00    0.159E-01
DAV:   2    -0.244058761625E+02   -0.16079E-04   -0.30646E-03 18980   0.429E-01    0.145E-01
DAV:   3    -0.244057443115E+02    0.13185E-03   -0.47114E-04 23540   0.373E-01    0.949E-02
DAV:   4    -0.244056303019E+02    0.11401E-03   -0.28489E-04 17380   0.149E-01    0.165E-02
DAV:   5    -0.244056232130E+02    0.70889E-05   -0.24375E-05 19300   0.324E-02
   7 F= -.24405623E+02 E0= -.24405414E+02  d E =-.418252E-03
 Finite differences progress:
  Degree of freedom:   3/  3
  Displacement:        2/  2
  Total:               6/  6
 Finite differences POTIM=  2.000000000000000E-002
 writing wavefunctions
