 running on   35 total cores
 distrk:  each k-point on   35 cores,    1 groups
 distr:  one band on    1 cores,   35 groups
 using from now: INCAR     
 vasp.5.4.1 24Jun15 (build Oct 26 2018 17:15:27) complex                        
  
 POSCAR found type information on POSCAR  O  C 
 POSCAR found :  2 types and       2 ions
 scaLAPACK will be used

 ----------------------------------------------------------------------------- 
|                                                                             |
|           W    W    AA    RRRRR   N    N  II  N    N   GGGG   !!!           |
|           W    W   A  A   R    R  NN   N  II  NN   N  G    G  !!!           |
|           W    W  A    A  R    R  N N  N  II  N N  N  G       !!!           |
|           W WW W  AAAAAA  RRRRR   N  N N  II  N  N N  G  GGG   !            |
|           WW  WW  A    A  R   R   N   NN  II  N   NN  G    G                |
|           W    W  A    A  R    R  N    N  II  N    N   GGGG   !!!           |
|                                                                             |
|      For optimal performance we recommend to set                            |
|        NCORE= 4 - approx SQRT( number of cores)                             |
|      NCORE specifies how many cores store one orbital (NPAR=cpu/NCORE).     |
|      This setting can  greatly improve the performance of VASP for DFT.     |
|      The default, NPAR=number of cores might be grossly inefficient         |
|      on modern multi-core architectures or massively parallel machines.     |
|      Do your own testing !!!!                                               |
|      Unfortunately you need to use the default for GW and RPA calculations. |
|      (for HF NCORE is supported but not extensively tested yet)             |
|                                                                             |
 ----------------------------------------------------------------------------- 

 LDA part: xc-table for Ceperly-Alder, standard interpolation
 POSCAR, INCAR and KPOINTS ok, starting setup
 WARNING: small aliasing (wrap around) errors must be expected
 FFT: planning ...
 WAVECAR not read
 entering main loop
       N       E                     dE             d eps       ncg     rms          rms(c)
DAV:   1     0.551013492280E+02    0.55101E+02   -0.17572E+03   210   0.101E+02
DAV:   2    -0.107137440851E+02   -0.65815E+02   -0.65815E+02   210   0.425E+01
DAV:   3    -0.141636907145E+02   -0.34499E+01   -0.34499E+01   280   0.109E+01
DAV:   4    -0.141652086155E+02   -0.15179E-02   -0.15179E-02   140   0.235E-01
DAV:   5    -0.141652159849E+02   -0.73694E-05   -0.73693E-05   280   0.159E-02    0.116E+01
DAV:   6    -0.101986633815E+02    0.39666E+01   -0.54007E+00   245   0.486E+00    0.443E+00
DAV:   7    -0.112813138903E+02   -0.10827E+01   -0.19301E+00   175   0.232E+00    0.206E+00
DAV:   8    -0.121267566196E+02   -0.84544E+00   -0.35536E-01   175   0.115E+00    0.866E-01
DAV:   9    -0.123746816045E+02   -0.24792E+00   -0.13782E-02   175   0.350E-01    0.469E-01
DAV:  10    -0.126213411142E+02   -0.24666E+00   -0.96874E-03   245   0.280E-01    0.238E-01
DAV:  11    -0.127592892822E+02   -0.13795E+00   -0.42883E-03   140   0.180E-01    0.176E-01
DAV:  12    -0.129560053677E+02   -0.19672E+00   -0.83922E-03   210   0.220E-01    0.104E-01
DAV:  13    -0.130799272270E+02   -0.12392E+00   -0.56336E-03   210   0.184E-01    0.481E-02
DAV:  14    -0.131275926275E+02   -0.47665E-01   -0.34477E-03   245   0.102E-01    0.289E-02
DAV:  15    -0.131513036529E+02   -0.23711E-01   -0.41295E-04   140   0.535E-02    0.147E-02
DAV:  16    -0.131641091706E+02   -0.12806E-01   -0.20001E-04   210   0.398E-02    0.625E-03
DAV:  17    -0.131672018164E+02   -0.30926E-02   -0.75880E-05   140   0.224E-02    0.350E-03
DAV:  18    -0.131682555767E+02   -0.10538E-02   -0.32554E-05   140   0.160E-02    0.192E-03
DAV:  19    -0.131683327346E+02   -0.77158E-04   -0.11787E-05   140   0.118E-02    0.123E-03
DAV:  20    -0.131684636285E+02   -0.13089E-03   -0.41741E-06   140   0.664E-03    0.974E-04
DAV:  21    -0.131687043522E+02   -0.24072E-03   -0.22362E-06   140   0.500E-03    0.695E-04
DAV:  22    -0.131688987979E+02   -0.19445E-03   -0.10991E-06   175   0.333E-03    0.402E-04
DAV:  23    -0.131689588169E+02   -0.60019E-04   -0.26653E-07   140   0.155E-03    0.219E-04
DAV:  24    -0.131689860086E+02   -0.27192E-04   -0.16209E-07   210   0.100E-03    0.183E-04
DAV:  25    -0.131689911691E+02   -0.51605E-05   -0.12333E-07   140   0.872E-04
   1 F= -.13168991E+02 E0= -.13168991E+02  d E =-.131690E+02  mag=    -0.0000
 curvature:   0.00 expect dE= 0.000E+00 dE for cont linesearch  0.000E+00
 trial: gam= 0.00000 g(F)=  0.728E+01 g(S)=  0.000E+00 ort = 0.000E+00 (trialstep = 0.100E+01)
 search vector abs. value=  0.728E+01
 bond charge predicted
       N       E                     dE             d eps       ncg     rms          rms(c)
DAV:   1    -0.146542413946E+02   -0.14853E+01   -0.14450E+02   140   0.297E+01    0.547E+00
DAV:   2    -0.142379425039E+02    0.41630E+00   -0.35880E+00   140   0.396E+00    0.306E+00
DAV:   3    -0.141734280173E+02    0.64514E-01   -0.10168E+00   245   0.226E+00    0.146E+00
DAV:   4    -0.141510182478E+02    0.22410E-01   -0.21270E-01   140   0.722E-01    0.578E-01
DAV:   5    -0.141549764777E+02   -0.39582E-02   -0.10837E-02   175   0.271E-01    0.181E-01
DAV:   6    -0.141556056850E+02   -0.62921E-03   -0.28170E-03   280   0.108E-01    0.397E-02
DAV:   7    -0.141562822861E+02   -0.67660E-03   -0.37498E-04   245   0.436E-02    0.230E-02
DAV:   8    -0.141571407451E+02   -0.85846E-03   -0.16586E-04   210   0.319E-02    0.150E-02
DAV:   9    -0.141592497332E+02   -0.21090E-02   -0.56734E-04   140   0.497E-02    0.127E-02
DAV:  10    -0.141603324910E+02   -0.10828E-02   -0.19340E-04   140   0.280E-02    0.653E-03
DAV:  11    -0.141612901463E+02   -0.95766E-03   -0.16341E-04   140   0.250E-02    0.520E-03
DAV:  12    -0.141618549111E+02   -0.56476E-03   -0.70876E-05   140   0.239E-02    0.302E-03
DAV:  13    -0.141620928973E+02   -0.23799E-03   -0.19185E-05   280   0.159E-02    0.156E-03
DAV:  14    -0.141623744087E+02   -0.28151E-03   -0.14598E-05   280   0.963E-03    0.113E-03
DAV:  15    -0.141624840003E+02   -0.10959E-03   -0.33595E-06   280   0.451E-03    0.672E-04
DAV:  16    -0.141625590037E+02   -0.75003E-04   -0.61951E-07   140   0.191E-03    0.396E-04
DAV:  17    -0.141626375694E+02   -0.78566E-04   -0.78814E-07   140   0.214E-03    0.227E-04
DAV:  18    -0.141626562476E+02   -0.18678E-04   -0.25582E-07   140   0.158E-03    0.169E-04
DAV:  19    -0.141626643829E+02   -0.81353E-05   -0.34921E-07   140   0.174E-03
   2 F= -.14162664E+02 E0= -.14162664E+02  d E =-.993673E+00  mag=    -0.0000
 trial-energy change:   -0.993673  1 .order   -2.430749   -7.280582    2.419083
 step:   0.5291(harm=  0.7506)  dis= 0.14024  next Energy=   -14.882256 (dE=-0.171E+01)
 bond charge predicted
       N       E                     dE             d eps       ncg     rms          rms(c)
DAV:   1    -0.148662758130E+02   -0.70362E+00   -0.37092E+01   140   0.144E+01    0.221E+00
DAV:   2    -0.148324012505E+02    0.33875E-01   -0.68482E-01   140   0.192E+00    0.145E+00
DAV:   3    -0.148107720119E+02    0.21629E-01   -0.15403E-01   280   0.854E-01    0.581E-01
DAV:   4    -0.148085299917E+02    0.22420E-02   -0.21905E-02   210   0.271E-01    0.203E-01
DAV:   5    -0.148086081074E+02   -0.78116E-04   -0.39457E-03   140   0.136E-01    0.868E-02
DAV:   6    -0.148092399666E+02   -0.63186E-03   -0.53024E-04   210   0.566E-02    0.171E-02
DAV:   7    -0.148100052312E+02   -0.76526E-03   -0.12858E-04   140   0.200E-02    0.108E-02
DAV:   8    -0.148115224084E+02   -0.15172E-02   -0.35566E-04   140   0.315E-02    0.701E-03
DAV:   9    -0.148121669469E+02   -0.64454E-03   -0.93391E-05   140   0.163E-02    0.455E-03
DAV:  10    -0.148126917737E+02   -0.52483E-03   -0.90216E-05   140   0.152E-02    0.253E-03
DAV:  11    -0.148128761754E+02   -0.18440E-03   -0.10335E-05   140   0.734E-03    0.167E-03
DAV:  12    -0.148130410273E+02   -0.16485E-03   -0.50730E-06   140   0.586E-03    0.872E-04
DAV:  13    -0.148131526235E+02   -0.11160E-03   -0.34072E-06   280   0.482E-03    0.790E-04
DAV:  14    -0.148131961512E+02   -0.43528E-04   -0.81222E-07   210   0.263E-03    0.543E-04
DAV:  15    -0.148132713964E+02   -0.75245E-04   -0.10685E-06   140   0.191E-03    0.476E-04
DAV:  16    -0.148132808166E+02   -0.94202E-05   -0.12090E-07   280   0.102E-03
   3 F= -.14813281E+02 E0= -.14813281E+02  d E =-.164429E+01  mag=     0.0000
 curvature:  -0.08 expect dE=-0.326E-04 dE for cont linesearch -0.326E-04
 ZBRENT: interpolating
 opt :   0.5395  next Energy=   -14.813565 (dE=-0.164E+01)
 bond charge predicted
       N       E                     dE             d eps       ncg     rms          rms(c)
DAV:   1    -0.148134652222E+02   -0.19383E-03   -0.19486E-02   140   0.342E-01    0.558E-02
DAV:   2    -0.148134143889E+02    0.50833E-04   -0.42207E-04   140   0.466E-02    0.340E-02
DAV:   3    -0.148133945238E+02    0.19865E-04   -0.98875E-05   140   0.226E-02    0.148E-02
DAV:   4    -0.148133876621E+02    0.68617E-05   -0.13264E-05   280   0.660E-03
   4 F= -.14813388E+02 E0= -.14813388E+02  d E =-.164440E+01  mag=     0.0000
 curvature:  -0.69 expect dE=-0.952E-04 dE for cont linesearch -0.952E-04
 ZBRENT: interpolating
 opt :   0.5357  next Energy=   -14.813448 (dE=-0.164E+01)
 bond charge predicted
       N       E                     dE             d eps       ncg     rms          rms(c)
DAV:   1    -0.148134528519E+02   -0.58328E-04   -0.25945E-03   140   0.125E-01    0.200E-02
DAV:   2    -0.148134542801E+02   -0.14282E-05   -0.50045E-05   280   0.164E-02
   5 F= -.14813454E+02 E0= -.14813454E+02  d E =-.164446E+01  mag=     0.0000
 curvature:  -0.44 expect dE=-0.438E-06 dE for cont linesearch -0.438E-06
 ZBRENT: interpolating
 opt :   0.5354  next Energy=   -14.813455 (dE=-0.164E+01)
 bond charge predicted
       N       E                     dE             d eps       ncg     rms          rms(c)
DAV:   1    -0.148134577629E+02   -0.49110E-05   -0.21795E-05   140   0.122E-02    0.584E-03
DAV:   2    -0.148134590559E+02   -0.12930E-05   -0.30307E-06   140   0.297E-03
   6 F= -.14813459E+02 E0= -.14813459E+02  d E =-.164447E+01  mag=     0.0000
 curvature:  -0.48 expect dE=-0.285E-06 dE for cont linesearch -0.285E-06
 trial: gam=-0.00029 g(F)=  0.595E-06 g(S)=  0.000E+00 ort = 0.208E-02 (trialstep = 0.907E+00)
 search vector abs. value=  0.100E-09
 reached required accuracy - stopping structural energy minimisation
