 running on   35 total cores
 distrk:  each k-point on   35 cores,    1 groups
 distr:  one band on    1 cores,   35 groups
 using from now: INCAR     
 vasp.5.4.1 24Jun15 (build Oct 26 2018 17:15:27) complex                        
  
 POSCAR found type information on POSCAR  Pt O  H 
 POSCAR found :  3 types and      19 ions
 scaLAPACK will be used

 ----------------------------------------------------------------------------- 
|                                                                             |
|           W    W    AA    RRRRR   N    N  II  N    N   GGGG   !!!           |
|           W    W   A  A   R    R  NN   N  II  NN   N  G    G  !!!           |
|           W    W  A    A  R    R  N N  N  II  N N  N  G       !!!           |
|           W WW W  AAAAAA  RRRRR   N  N N  II  N  N N  G  GGG   !            |
|           WW  WW  A    A  R   R   N   NN  II  N   NN  G    G                |
|           W    W  A    A  R    R  N    N  II  N    N   GGGG   !!!           |
|                                                                             |
|      For optimal performance we recommend to set                            |
|        NCORE= 4 - approx SQRT( number of cores)                             |
|      NCORE specifies how many cores store one orbital (NPAR=cpu/NCORE).     |
|      This setting can  greatly improve the performance of VASP for DFT.     |
|      The default, NPAR=number of cores might be grossly inefficient         |
|      on modern multi-core architectures or massively parallel machines.     |
|      Do your own testing !!!!                                               |
|      Unfortunately you need to use the default for GW and RPA calculations. |
|      (for HF NCORE is supported but not extensively tested yet)             |
|                                                                             |
 ----------------------------------------------------------------------------- 

 LDA part: xc-table for Ceperly-Alder, standard interpolation
 POSCAR, INCAR and KPOINTS ok, starting setup
 WARNING: small aliasing (wrap around) errors must be expected
 FFT: planning ...
 WAVECAR not read
 WARNING: random wavefunctions but no delay for mixing, default for NELMDL
 entering main loop
       N       E                     dE             d eps       ncg     rms          rms(c)
DAV:   1     0.171467288109E+04    0.17147E+04   -0.70909E+04  7140   0.138E+03
DAV:   2     0.656410253749E+02   -0.16490E+04   -0.15468E+04  7140   0.458E+02
DAV:   3    -0.106606392488E+03   -0.17225E+03   -0.16701E+03 10605   0.121E+02
DAV:   4    -0.112535580209E+03   -0.59292E+01   -0.58932E+01  7805   0.341E+01
DAV:   5    -0.112713340323E+03   -0.17776E+00   -0.17768E+00 10605   0.376E+00    0.170E+01
RMM:   6    -0.109392286960E+03    0.33211E+01   -0.22912E+01  7177   0.205E+01    0.142E+01
RMM:   7    -0.131905003225E+03   -0.22513E+02   -0.15821E+01  7816   0.119E+01    0.248E+01
RMM:   8    -0.111840944686E+03    0.20064E+02   -0.77635E+00  7350   0.798E+00    0.162E+01
RMM:   9    -0.105747474407E+03    0.60935E+01   -0.28480E+00  7165   0.583E+00    0.592E+00
RMM:  10    -0.105366899778E+03    0.38057E+00   -0.10046E+00  7314   0.355E+00    0.335E+00
RMM:  11    -0.105196302940E+03    0.17060E+00   -0.23641E-01  7376   0.169E+00    0.176E+00
RMM:  12    -0.105179088032E+03    0.17215E-01   -0.12314E-01  7153   0.130E+00    0.166E+00
RMM:  13    -0.105151476135E+03    0.27612E-01   -0.69498E-02  7155   0.100E+00    0.141E+00
RMM:  14    -0.105124667943E+03    0.26808E-01   -0.22222E-02  7147   0.566E-01    0.626E-01
RMM:  15    -0.105116097202E+03    0.85707E-02   -0.63246E-03  7429   0.280E-01    0.255E-01
RMM:  16    -0.105114498624E+03    0.15986E-02   -0.23219E-03  7685   0.150E-01    0.271E-01
RMM:  17    -0.105111264532E+03    0.32341E-02   -0.15337E-03  7370   0.116E-01    0.292E-01
RMM:  18    -0.105108580621E+03    0.26839E-02   -0.13786E-03  7199   0.121E-01    0.155E-01
RMM:  19    -0.105107571351E+03    0.10093E-02   -0.64550E-04  7653   0.667E-02    0.116E-01
RMM:  20    -0.105106472292E+03    0.10991E-02   -0.10156E-03  7165   0.827E-02    0.972E-02
RMM:  21    -0.105106064688E+03    0.40760E-03   -0.45441E-04  7387   0.602E-02    0.588E-02
RMM:  22    -0.105105786473E+03    0.27821E-03   -0.15197E-04  6531   0.401E-02    0.366E-02
RMM:  23    -0.105105632697E+03    0.15378E-03   -0.91698E-05  6119   0.348E-02    0.817E-02
RMM:  24    -0.105105610135E+03    0.22563E-04   -0.17695E-04  6428   0.321E-02    0.718E-02
RMM:  25    -0.105105738490E+03   -0.12836E-03   -0.14680E-04  5891   0.220E-02    0.247E-02
RMM:  26    -0.105105934758E+03   -0.19627E-03   -0.39915E-05  4867   0.160E-02    0.176E-02
RMM:  27    -0.105108288793E+03   -0.23540E-02   -0.33301E-04  7224   0.370E-02    0.359E-01
RMM:  28    -0.105110678602E+03   -0.23898E-02   -0.17121E-04  7349   0.392E-02    0.531E-01
RMM:  29    -0.105112179730E+03   -0.15011E-02   -0.47492E-05  5567   0.185E-02    0.611E-01
RMM:  30    -0.105113004960E+03   -0.82523E-03   -0.16206E-05  4300   0.152E-02    0.653E-01
RMM:  31    -0.105113645359E+03   -0.64040E-03   -0.11069E-05  4196   0.124E-02    0.682E-01
RMM:  32    -0.105113871278E+03   -0.22592E-03   -0.82618E-06  4197   0.106E-02    0.688E-01
RMM:  33    -0.105114665889E+03   -0.79461E-03   -0.16749E-05  4457   0.104E-02    0.721E-01
RMM:  34    -0.105114947790E+03   -0.28190E-03   -0.44958E-06  4093   0.775E-03    0.732E-01
RMM:  35    -0.105114881242E+03    0.66548E-04   -0.15214E-06  3707   0.550E-03    0.729E-01
RMM:  36    -0.105114664979E+03    0.21626E-03   -0.55611E-07  2897   0.342E-03    0.720E-01
RMM:  37    -0.105113600176E+03    0.10648E-02   -0.71294E-06  3922   0.702E-03    0.668E-01
RMM:  38    -0.105110222854E+03    0.33773E-02   -0.13286E-04  6801   0.231E-02    0.467E-01
RMM:  39    -0.105107928722E+03    0.22941E-02   -0.16295E-04  7423   0.336E-02    0.261E-01
RMM:  40    -0.105107202707E+03    0.72602E-03   -0.69985E-05  6174   0.224E-02    0.146E-01
RMM:  41    -0.105107010148E+03    0.19256E-03   -0.23222E-05  4508   0.170E-02    0.928E-02
RMM:  42    -0.105106937712E+03    0.72436E-04   -0.15501E-05  4222   0.139E-02    0.565E-02
RMM:  43    -0.105106907066E+03    0.30645E-04   -0.11829E-05  4128   0.130E-02    0.202E-02
RMM:  44    -0.105106921787E+03   -0.14721E-04   -0.81174E-06  4073   0.111E-02    0.115E-02
RMM:  45    -0.105106948352E+03   -0.26565E-04   -0.62130E-06  4079   0.962E-03    0.807E-03
RMM:  46    -0.105106976520E+03   -0.28168E-04   -0.81060E-06  4176   0.985E-03    0.493E-03
RMM:  47    -0.105106983130E+03   -0.66098E-05   -0.31684E-06  4103   0.667E-03
   1 F= -.10510698E+03 E0= -.10501894E+03  d E =-.105107E+03
 curvature:   0.00 expect dE= 0.000E+00 dE for cont linesearch  0.000E+00
 trial: gam= 0.00000 g(F)=  0.656E-03 g(S)=  0.000E+00 ort = 0.000E+00 (trialstep = 0.100E+01)
 search vector abs. value=  0.656E-03
 bond charge predicted
       N       E                     dE             d eps       ncg     rms          rms(c)
DAV:   1    -0.105107498181E+03   -0.52166E-03   -0.27806E-02  8960   0.475E-01    0.368E-02
RMM:   2    -0.105108292215E+03   -0.79403E-03   -0.60024E-04  7368   0.801E-02    0.243E-01
RMM:   3    -0.105107607212E+03    0.68500E-03   -0.11929E-04  7125   0.366E-02    0.695E-02
RMM:   4    -0.105107532030E+03    0.75182E-04   -0.42688E-05  5204   0.252E-02    0.328E-02
RMM:   5    -0.105107516934E+03    0.15096E-04   -0.12212E-05  3961   0.193E-02    0.135E-02
RMM:   6    -0.105107516354E+03    0.58080E-06   -0.44562E-06  3941   0.107E-02
   2 F= -.10510752E+03 E0= -.10501948E+03  d E =-.533224E-03
 trial-energy change:   -0.000533  1 .order   -0.000539   -0.000656   -0.000422
 step:   2.8016(harm=  2.8016)  dis= 0.00311  next Energy=  -105.107901 (dE=-0.918E-03)
 bond charge predicted
       N       E                     dE             d eps       ncg     rms          rms(c)
DAV:   1    -0.105107822441E+03   -0.30551E-03   -0.90145E-02  8925   0.855E-01    0.669E-02
RMM:   2    -0.105110828239E+03   -0.30058E-02   -0.20457E-03  7416   0.147E-01    0.472E-01
RMM:   3    -0.105108145351E+03    0.26829E-02   -0.39801E-04  7281   0.667E-02    0.111E-01
RMM:   4    -0.105107946249E+03    0.19910E-03   -0.15921E-04  7122   0.470E-02    0.571E-02
RMM:   5    -0.105107897950E+03    0.48298E-04   -0.28104E-05  4406   0.216E-02    0.243E-02
RMM:   6    -0.105107892468E+03    0.54825E-05   -0.15244E-05  3988   0.209E-02
   3 F= -.10510789E+03 E0= -.10501984E+03  d E =-.909338E-03
 curvature:  -1.40 expect dE=-0.909E-03 dE for cont linesearch -0.605E-07
 trial: gam= 0.98222 g(F)=  0.649E-03 g(S)=  0.000E+00 ort = 0.532E-05 (trialstep = 0.690E+00)
 search vector abs. value=  0.129E-02
 bond charge predicted
       N       E                     dE             d eps       ncg     rms          rms(c)
DAV:   1    -0.105108252384E+03   -0.35443E-03   -0.29922E-02  8470   0.500E-01    0.321E-02
RMM:   2    -0.105108662956E+03   -0.41057E-03   -0.56769E-04  7208   0.829E-02    0.170E-01
RMM:   3    -0.105108368474E+03    0.29448E-03   -0.88510E-05  6944   0.342E-02    0.665E-02
RMM:   4    -0.105108304002E+03    0.64472E-04   -0.33004E-05  4756   0.237E-02    0.277E-02
RMM:   5    -0.105108293701E+03    0.10301E-04   -0.11084E-05  3963   0.183E-02    0.136E-02
RMM:   6    -0.105108291643E+03    0.20576E-05   -0.40899E-06  3939   0.108E-02
   4 F= -.10510829E+03 E0= -.10502021E+03  d E =-.399175E-03
 ZBRENT: can't locate minimum, use default step
 trial-energy change:   -0.000399  1 .order   -0.000413   -0.000452   -0.000374
 step:   2.7606(harm=  4.0340)  dis= 0.00394  next Energy=  -105.109212 (dE=-0.132E-02)
 bond charge predicted
       N       E                     dE             d eps       ncg     rms          rms(c)
DAV:   1    -0.105108727443E+03   -0.43374E-03   -0.26721E-01  8505   0.149E+00    0.864E-02
RMM:   2    -0.105114061074E+03   -0.53336E-02   -0.47420E-03  7252   0.235E-01    0.613E-01
RMM:   3    -0.105109357624E+03    0.47035E-02   -0.77103E-04  7283   0.101E-01    0.113E-01
RMM:   4    -0.105109161034E+03    0.19659E-03   -0.23158E-04  7180   0.564E-02    0.802E-02
RMM:   5    -0.105109063012E+03    0.98022E-04   -0.50498E-05  5789   0.261E-02    0.303E-02
RMM:   6    -0.105109054511E+03    0.85007E-05   -0.25599E-05  4264   0.231E-02
   5 F= -.10510905E+03 E0= -.10502089E+03  d E =-.116204E-02
 curvature:  -3.40 expect dE=-0.622E-03 dE for cont linesearch -0.114E-03
 ZBRENT: increasing intervall
 opt :   6.9016  next Energy=  -105.108529 (dE=-0.637E-03)
 bond charge predicted
       N       E                     dE             d eps       ncg     rms          rms(c)
DAV:   1    -0.105107121690E+03    0.19413E-02   -0.10678E+00  7560   0.297E+00    0.175E-01
RMM:   2    -0.105126854126E+03   -0.19732E-01   -0.19841E-02  7210   0.477E-01    0.117E+00
RMM:   3    -0.105109815280E+03    0.17039E-01   -0.31707E-03  7275   0.210E-01    0.251E-01
RMM:   4    -0.105108932757E+03    0.88252E-03   -0.10445E-03  7186   0.120E-01    0.159E-01
RMM:   5    -0.105108572492E+03    0.36027E-03   -0.22215E-04  7168   0.530E-02    0.670E-02
RMM:   6    -0.105108530947E+03    0.41544E-04   -0.10099E-04  7057   0.375E-02    0.497E-02
RMM:   7    -0.105108513509E+03    0.17439E-04   -0.12102E-04  7160   0.361E-02    0.391E-02
RMM:   8    -0.105108499589E+03    0.13920E-04   -0.55058E-05  6148   0.251E-02    0.230E-02
RMM:   9    -0.105108491082E+03    0.85065E-05   -0.10828E-05  3980   0.153E-02
   6 F= -.10510849E+03 E0= -.10502015E+03  d E =-.598615E-03
 curvature:  15.70 expect dE= 0.183E-01 dE for cont linesearch  0.244E-02
 ZBRENT: bracketing found
 ZBRENT: interpolating
 opt :   4.0724  next Energy=  -105.109191 (dE=-0.130E-02)
 bond charge predicted
       N       E                     dE             d eps       ncg     rms          rms(c)
DAV:   1    -0.105108596348E+03   -0.96759E-04   -0.49962E-01  8995   0.203E+00    0.117E-01
RMM:   2    -0.105118107698E+03   -0.95113E-02   -0.87576E-03  7335   0.318E-01    0.825E-01
RMM:   3    -0.105109833856E+03    0.82738E-02   -0.14181E-03  7310   0.132E-01    0.170E-01
RMM:   4    -0.105109374018E+03    0.45984E-03   -0.44405E-04  7161   0.798E-02    0.105E-01
RMM:   5    -0.105109209771E+03    0.16425E-03   -0.99415E-05  7073   0.360E-02    0.418E-02
RMM:   6    -0.105109189266E+03    0.20504E-04   -0.44074E-05  5342   0.258E-02    0.320E-02
RMM:   7    -0.105109178572E+03    0.10694E-04   -0.57460E-05  6359   0.296E-02    0.246E-02
RMM:   8    -0.105109172887E+03    0.56847E-05   -0.22338E-05  4097   0.205E-02
   7 F= -.10510917E+03 E0= -.10502094E+03  d E =-.128042E-02
 curvature:  -0.88 expect dE=-0.218E-03 dE for cont linesearch -0.723E-09
 trial: gam= 0.41676 g(F)=  0.249E-03 g(S)=  0.000E+00 ort =-0.103E-05 (trialstep = 0.137E+01)
 search vector abs. value=  0.473E-03
 bond charge predicted
       N       E                     dE             d eps       ncg     rms          rms(c)
DAV:   1    -0.105109464825E+03   -0.28625E-03   -0.24860E-02  8750   0.456E-01    0.268E-02
RMM:   2    -0.105109613105E+03   -0.14828E-03   -0.42192E-04  7104   0.745E-02    0.947E-02
RMM:   3    -0.105109536933E+03    0.76172E-04   -0.43210E-05  5114   0.255E-02    0.510E-02
RMM:   4    -0.105109506725E+03    0.30209E-04   -0.21068E-05  4089   0.226E-02    0.244E-02
RMM:   5    -0.105109499189E+03    0.75358E-05   -0.81730E-06  3871   0.163E-02
   8 F= -.10510950E+03 E0= -.10502126E+03  d E =-.326301E-03
 ZBRENT: can't locate minimum, use default step
 trial-energy change:   -0.000326  1 .order   -0.000331   -0.000340   -0.000322
 step:   5.4664(harm= 26.6774)  dis= 0.00711  next Energy=  -105.112488 (dE=-0.331E-02)
 bond charge predicted
       N       E                     dE             d eps       ncg     rms          rms(c)
DAV:   1    -0.105110010535E+03   -0.50381E-03   -0.22250E-01  7805   0.136E+00    0.840E-02
RMM:   2    -0.105111929486E+03   -0.19190E-02   -0.37646E-03  7198   0.215E-01    0.352E-01
RMM:   3    -0.105110629956E+03    0.12995E-02   -0.48720E-04  7591   0.804E-02    0.138E-01
RMM:   4    -0.105110423447E+03    0.20651E-03   -0.20806E-04  7171   0.532E-02    0.812E-02
RMM:   5    -0.105110329607E+03    0.93840E-04   -0.59265E-05  6111   0.281E-02    0.357E-02
RMM:   6    -0.105110317566E+03    0.12041E-04   -0.37056E-05  4862   0.259E-02    0.255E-02
RMM:   7    -0.105110311293E+03    0.62733E-05   -0.26851E-05  4264   0.250E-02
   9 F= -.10511031E+03 E0= -.10502196E+03  d E =-.113841E-02
 curvature:  -7.55 expect dE=-0.138E-02 dE for cont linesearch -0.531E-03
 ZBRENT: increasing intervall
 opt :  13.6661  next Energy=  -105.111367 (dE=-0.219E-02)
 bond charge predicted
       N       E                     dE             d eps       ncg     rms          rms(c)
DAV:   1    -0.105110097738E+03    0.21983E-03   -0.88844E-01  8785   0.272E+00    0.167E-01
RMM:   2    -0.105119917540E+03   -0.98198E-02   -0.14790E-02  7234   0.424E-01    0.810E-01
RMM:   3    -0.105112309567E+03    0.76080E-02   -0.19849E-03  7354   0.163E-01    0.246E-01
RMM:   4    -0.105111607490E+03    0.70208E-03   -0.82933E-04  7152   0.108E-01    0.149E-01
RMM:   5    -0.105111320731E+03    0.28676E-03   -0.22985E-04  7147   0.544E-02    0.762E-02
RMM:   6    -0.105111257246E+03    0.63485E-04   -0.13028E-04  7120   0.428E-02    0.432E-02
RMM:   7    -0.105111236350E+03    0.20895E-04   -0.77515E-05  6853   0.290E-02    0.241E-02
RMM:   8    -0.105111237006E+03   -0.65558E-06   -0.27294E-05  4407   0.203E-02
  10 F= -.10511124E+03 E0= -.10502277E+03  d E =-.206412E-02
 curvature: -15.01 expect dE=-0.409E-02 dE for cont linesearch -0.182E-03
 ZBRENT: increasing intervall
 opt :  30.0655  next Energy=  -105.110730 (dE=-0.156E-02)
 bond charge predicted
       N       E                     dE             d eps       ncg     rms          rms(c)
DAV:   1    -0.105105915512E+03    0.53208E-02   -0.35487E+00  7980   0.545E+00    0.326E-01
RMM:   2    -0.105134629403E+03   -0.28714E-01   -0.59834E-02  7184   0.869E-01    0.134E+00
RMM:   3    -0.105115165326E+03    0.19464E-01   -0.75639E-03  7493   0.326E-01    0.525E-01
RMM:   4    -0.105112293644E+03    0.28717E-02   -0.31507E-03  7165   0.207E-01    0.304E-01
RMM:   5    -0.105111030858E+03    0.12628E-02   -0.85615E-04  7155   0.105E-01    0.142E-01
RMM:   6    -0.105110846606E+03    0.18425E-03   -0.50040E-04  7140   0.836E-02    0.960E-02
RMM:   7    -0.105110789128E+03    0.57477E-04   -0.38422E-04  7152   0.653E-02    0.731E-02
RMM:   8    -0.105110750819E+03    0.38310E-04   -0.18597E-04  7129   0.475E-02    0.497E-02
RMM:   9    -0.105110714129E+03    0.36690E-04   -0.33767E-05  4690   0.224E-02    0.151E-02
RMM:  10    -0.105110714573E+03   -0.44384E-06   -0.10753E-05  3986   0.182E-02
  11 F= -.10511071E+03 E0= -.10502187E+03  d E =-.154169E-02
 curvature:  41.88 expect dE= 0.553E-01 dE for cont linesearch  0.167E-02
 ZBRENT: bracketing found
 ZBRENT: interpolating
 opt :  19.4979  next Energy=  -105.111458 (dE=-0.228E-02)
 bond charge predicted
       N       E                     dE             d eps       ncg     rms          rms(c)
DAV:   1    -0.105109430203E+03    0.12839E-02   -0.14742E+00  7910   0.351E+00    0.215E-01
RMM:   2    -0.105129127055E+03   -0.19697E-01   -0.26426E-02  7203   0.571E-01    0.117E+00
RMM:   3    -0.105113336086E+03    0.15791E-01   -0.37079E-03  7549   0.208E-01    0.314E-01
RMM:   4    -0.105111971209E+03    0.13649E-02   -0.13453E-03  7149   0.138E-01    0.184E-01
RMM:   5    -0.105111543908E+03    0.42730E-03   -0.36761E-04  7153   0.686E-02    0.946E-02
RMM:   6    -0.105111473020E+03    0.70888E-04   -0.22452E-04  7140   0.546E-02    0.657E-02
RMM:   7    -0.105111444647E+03    0.28373E-04   -0.17129E-04  7150   0.439E-02    0.477E-02
RMM:   8    -0.105111422991E+03    0.21656E-04   -0.76381E-05  6829   0.304E-02    0.305E-02
RMM:   9    -0.105111409091E+03    0.13899E-04   -0.13258E-05  4012   0.153E-02    0.128E-02
RMM:  10    -0.105111407188E+03    0.19033E-05   -0.50998E-06  3903   0.130E-02
  12 F= -.10511141E+03 E0= -.10502279E+03  d E =-.223430E-02
 curvature:  -5.55 expect dE=-0.287E-02 dE for cont linesearch -0.137E-06
 trial: gam= 2.05735 g(F)=  0.517E-03 g(S)=  0.000E+00 ort = 0.342E-05 (trialstep = 0.932E+00)
 search vector abs. value=  0.253E-02
 bond charge predicted
       N       E                     dE             d eps       ncg     rms          rms(c)
DAV:   1    -0.105111828444E+03   -0.41935E-03   -0.47489E-02  9345   0.633E-01    0.524E-02
RMM:   2    -0.105114363671E+03   -0.25352E-02   -0.11530E-03  7483   0.106E-01    0.431E-01
RMM:   3    -0.105112020446E+03    0.23432E-02   -0.29615E-04  7304   0.565E-02    0.724E-02
RMM:   4    -0.105111911065E+03    0.10938E-03   -0.94240E-05  6912   0.374E-02    0.426E-02
RMM:   5    -0.105111885211E+03    0.25853E-04   -0.18842E-05  4127   0.177E-02    0.201E-02
RMM:   6    -0.105111880464E+03    0.47477E-05   -0.11565E-05  3938   0.195E-02
  13 F= -.10511188E+03 E0= -.10502321E+03  d E =-.473276E-03
 ZBRENT: can't locate minimum, use default step
 trial-energy change:   -0.000473  1 .order   -0.000480   -0.000489   -0.000471
 step:   3.7277(harm= 25.6431)  dis= 0.01335  next Energy=  -105.118132 (dE=-0.672E-02)
 bond charge predicted
       N       E                     dE             d eps       ncg     rms          rms(c)
DAV:   1    -0.105112556255E+03   -0.67104E-03   -0.42610E-01  8295   0.190E+00    0.158E-01
RMM:   2    -0.105131822875E+03   -0.19267E-01   -0.10001E-02  7354   0.315E-01    0.118E+00
RMM:   3    -0.105114174058E+03    0.17649E-01   -0.23574E-03  7299   0.160E-01    0.225E-01
RMM:   4    -0.105113316382E+03    0.85768E-03   -0.82881E-04  7161   0.109E-01    0.130E-01
RMM:   5    -0.105113101511E+03    0.21487E-03   -0.19501E-04  7176   0.499E-02    0.621E-02
RMM:   6    -0.105113068703E+03    0.32808E-04   -0.84704E-05  6950   0.355E-02    0.411E-02
RMM:   7    -0.105113054710E+03    0.13993E-04   -0.60798E-05  6285   0.287E-02    0.331E-02
RMM:   8    -0.105113039979E+03    0.14731E-04   -0.29416E-05  4377   0.242E-02    0.167E-02
RMM:   9    -0.105113036643E+03    0.33367E-05   -0.97276E-06  3977   0.191E-02
  14 F= -.10511304E+03 E0= -.10502424E+03  d E =-.162945E-02
 curvature: -13.21 expect dE=-0.787E-02 dE for cont linesearch -0.642E-03
 ZBRENT: increasing intervall
 opt :   9.3194  next Energy=  -105.114134 (dE=-0.273E-02)
 bond charge predicted
       N       E                     dE             d eps       ncg     rms          rms(c)
DAV:   1    -0.105111813728E+03    0.12263E-02   -0.17043E+00  9030   0.380E+00    0.309E-01
RMM:   2    -0.105178267304E+03   -0.66454E-01   -0.38062E-02  7409   0.616E-01    0.216E+00
RMM:   3    -0.105117995304E+03    0.60272E-01   -0.86112E-03  7314   0.308E-01    0.449E-01
RMM:   4    -0.105114809833E+03    0.31855E-02   -0.30719E-03  7161   0.207E-01    0.262E-01
RMM:   5    -0.105113911132E+03    0.89870E-03   -0.75172E-04  7182   0.971E-02    0.118E-01
RMM:   6    -0.105113772268E+03    0.13886E-03   -0.32140E-04  7140   0.674E-02    0.750E-02
RMM:   7    -0.105113748460E+03    0.23809E-04   -0.21704E-04  7148   0.524E-02    0.620E-02
RMM:   8    -0.105113709998E+03    0.38462E-04   -0.11253E-04  7150   0.384E-02    0.347E-02
RMM:   9    -0.105113694009E+03    0.15989E-04   -0.17833E-05  4187   0.174E-02    0.149E-02
RMM:  10    -0.105113693683E+03    0.32573E-06   -0.69387E-06  3964   0.157E-02
  15 F= -.10511369E+03 E0= -.10502464E+03  d E =-.228650E-02
 curvature: -22.57 expect dE=-0.643E-01 dE for cont linesearch -0.457E-04
 trial: gam= 5.52476 g(F)=  0.285E-02 g(S)=  0.000E+00 ort =-0.716E-04 (trialstep = 0.833E-01)
 search vector abs. value=  0.793E-01
 bond charge predicted
       N       E                     dE             d eps       ncg     rms          rms(c)
DAV:   1    -0.105113878891E+03   -0.18488E-03   -0.94551E-03  9345   0.281E-01    0.207E-02
RMM:   2    -0.105113915651E+03   -0.36760E-04   -0.17500E-04  6639   0.464E-02    0.374E-02
RMM:   3    -0.105113959174E+03   -0.43524E-04   -0.18252E-05  4099   0.180E-02    0.699E-02
RMM:   4    -0.105113899788E+03    0.59387E-04   -0.11324E-05  3993   0.163E-02    0.159E-02
RMM:   5    -0.105113899137E+03    0.65031E-06   -0.49090E-06  3964   0.121E-02
  16 F= -.10511390E+03 E0= -.10502485E+03  d E =-.205454E-03
 ZBRENT: can't locate minimum, use default step
 trial-energy change:   -0.000205  1 .order   -0.000199   -0.000204   -0.000194
 step:   0.3331(harm=  1.6877)  dis= 0.00710  next Energy=  -105.115765 (dE=-0.207E-02)
 bond charge predicted
       N       E                     dE             d eps       ncg     rms          rms(c)
DAV:   1    -0.105114332271E+03   -0.43248E-03   -0.85383E-02  8365   0.842E-01    0.593E-02
RMM:   2    -0.105114958879E+03   -0.62661E-03   -0.14627E-03  7161   0.135E-01    0.196E-01
RMM:   3    -0.105114665505E+03    0.29337E-03   -0.18691E-04  7382   0.497E-02    0.117E-01
RMM:   4    -0.105114508087E+03    0.15742E-03   -0.10584E-04  7105   0.386E-02    0.551E-02
RMM:   5    -0.105114473825E+03    0.34262E-04   -0.29550E-05  4556   0.214E-02    0.324E-02
RMM:   6    -0.105114460171E+03    0.13655E-04   -0.20589E-05  4079   0.256E-02    0.149E-02
RMM:   7    -0.105114461743E+03   -0.15720E-05   -0.11992E-05  3985   0.163E-02
  17 F= -.10511446E+03 E0= -.10502533E+03  d E =-.768059E-03
 curvature:  -7.83 expect dE=-0.183E-01 dE for cont linesearch -0.471E-03
 ZBRENT: increasing intervall
 opt :   0.8327  next Energy=  -105.115479 (dE=-0.179E-02)
 bond charge predicted
       N       E                     dE             d eps       ncg     rms          rms(c)
DAV:   1    -0.105114852932E+03   -0.39276E-03   -0.34024E-01  7280   0.168E+00    0.116E-01
RMM:   2    -0.105119342919E+03   -0.44900E-02   -0.62849E-03  7170   0.279E-01    0.547E-01
RMM:   3    -0.105115907411E+03    0.34355E-02   -0.89353E-04  7516   0.104E-01    0.173E-01
RMM:   4    -0.105115527324E+03    0.38009E-03   -0.39994E-04  7142   0.762E-02    0.968E-02
RMM:   5    -0.105115439247E+03    0.88077E-04   -0.11060E-04  7132   0.374E-02    0.627E-02
RMM:   6    -0.105115385442E+03    0.53805E-04   -0.56611E-05  6165   0.293E-02    0.279E-02
RMM:   7    -0.105115390195E+03   -0.47532E-05   -0.39738E-05  5092   0.258E-02
  18 F= -.10511539E+03 E0= -.10502616E+03  d E =-.169651E-02
 curvature: -16.91 expect dE=-0.306E-01 dE for cont linesearch -0.561E-03
 ZBRENT: increasing intervall
 opt :   1.8320  next Energy=  -105.116451 (dE=-0.276E-02)
 bond charge predicted
       N       E                     dE             d eps       ncg     rms          rms(c)
DAV:   1    -0.105114389961E+03    0.99548E-03   -0.13582E+00  7140   0.336E+00    0.231E-01
RMM:   2    -0.105132937248E+03   -0.18547E-01   -0.24957E-02  7161   0.554E-01    0.111E+00
RMM:   3    -0.105118460681E+03    0.14477E-01   -0.35948E-03  7441   0.213E-01    0.335E-01
RMM:   4    -0.105117082052E+03    0.13786E-02   -0.15709E-03  7146   0.151E-01    0.196E-01
RMM:   5    -0.105116710991E+03    0.37106E-03   -0.43388E-04  7163   0.742E-02    0.124E-01
RMM:   6    -0.105116505570E+03    0.20542E-03   -0.23192E-04  7139   0.585E-02    0.553E-02
RMM:   7    -0.105116530908E+03   -0.25338E-04   -0.16645E-04  7144   0.455E-02    0.605E-02
RMM:   8    -0.105116482936E+03    0.47972E-04   -0.66621E-05  6607   0.291E-02    0.209E-02
RMM:   9    -0.105116479018E+03    0.39183E-05   -0.10072E-05  4014   0.137E-02
  19 F= -.10511648E+03 E0= -.10502714E+03  d E =-.278533E-02
 curvature: -31.94 expect dE=-0.326E-01 dE for cont linesearch -0.272E-03
 ZBRENT: increasing intervall
 opt :   3.8305  next Energy=  -105.116521 (dE=-0.283E-02)
 bond charge predicted
       N       E                     dE             d eps       ncg     rms          rms(c)
DAV:   1    -0.105108007035E+03    0.84759E-02   -0.54119E+00  7140   0.672E+00    0.454E-01
RMM:   2    -0.105168185645E+03   -0.60179E-01   -0.96900E-02  7151   0.111E+00    0.194E+00
RMM:   3    -0.105123784779E+03    0.44401E-01   -0.13414E-02  7511   0.421E-01    0.670E-01
RMM:   4    -0.105118666505E+03    0.51183E-02   -0.59996E-03  7145   0.295E-01    0.390E-01
RMM:   5    -0.105117167003E+03    0.14995E-02   -0.16422E-03  7162   0.145E-01    0.240E-01
RMM:   6    -0.105116467032E+03    0.69997E-03   -0.89237E-04  7140   0.115E-01    0.117E-01
RMM:   7    -0.105116583447E+03   -0.11641E-03   -0.69701E-04  7156   0.913E-02    0.129E-01
RMM:   8    -0.105116360232E+03    0.22321E-03   -0.29183E-04  7143   0.604E-02    0.415E-02
RMM:   9    -0.105116343180E+03    0.17052E-04   -0.44842E-05  5279   0.248E-02    0.217E-02
RMM:  10    -0.105116341768E+03    0.14117E-05   -0.14821E-05  4039   0.210E-02
  20 F= -.10511634E+03 E0= -.10502673E+03  d E =-.264808E-02
 curvature:  -4.91 expect dE=-0.108E-01 dE for cont linesearch -0.669E-04
 trial: gam= 0.00000 g(F)=  0.220E-02 g(S)=  0.000E+00 ort =-0.104E-02 (trialstep = 0.833E+00)
 search vector abs. value=  0.220E-02
 bond charge predicted
       N       E                     dE             d eps       ncg     rms          rms(c)
DAV:   1    -0.105117893247E+03   -0.15501E-02   -0.55212E-02  8995   0.654E-01    0.467E-02
RMM:   2    -0.105118002080E+03   -0.10883E-03   -0.10058E-03  7264   0.108E-01    0.688E-02
RMM:   3    -0.105118261675E+03   -0.25959E-03   -0.13997E-04  7266   0.428E-02    0.155E-01
RMM:   4    -0.105118000622E+03    0.26105E-03   -0.54033E-05  5830   0.241E-02    0.613E-02
RMM:   5    -0.105117940194E+03    0.60428E-04   -0.19281E-05  4086   0.214E-02    0.171E-02
RMM:   6    -0.105117940849E+03   -0.65550E-06   -0.92652E-06  4003   0.149E-02
  21 F= -.10511794E+03 E0= -.10502837E+03  d E =-.159908E-02
 trial-energy change:   -0.001599  1 .order   -0.001583   -0.001828   -0.001337
 step:   3.1019(harm=  3.1019)  dis= 0.00409  next Energy=  -105.119746 (dE=-0.340E-02)
 bond charge predicted
       N       E                     dE             d eps       ncg     rms          rms(c)
DAV:   1    -0.105119401708E+03   -0.14615E-02   -0.40796E-01  7210   0.178E+00    0.128E-01
RMM:   2    -0.105123903201E+03   -0.45015E-02   -0.83836E-03  7148   0.309E-01    0.548E-01
RMM:   3    -0.105120993481E+03    0.29097E-02   -0.11637E-03  7296   0.128E-01    0.283E-01
RMM:   4    -0.105119984327E+03    0.10092E-02   -0.56680E-04  7177   0.834E-02    0.119E-01
RMM:   5    -0.105119763927E+03    0.22040E-03   -0.11860E-04  7113   0.402E-02    0.467E-02
RMM:   6    -0.105119742668E+03    0.21259E-04   -0.52549E-05  5865   0.266E-02    0.411E-02
RMM:   7    -0.105119730929E+03    0.11739E-04   -0.80877E-05  7058   0.320E-02    0.273E-02
RMM:   8    -0.105119730011E+03    0.91803E-06   -0.30525E-05  4523   0.202E-02
  22 F= -.10511973E+03 E0= -.10503022E+03  d E =-.338824E-02
 curvature:  -1.55 expect dE=-0.423E-02 dE for cont linesearch -0.347E-06
 trial: gam= 1.25360 g(F)=  0.273E-02 g(S)=  0.000E+00 ort =-0.222E-04 (trialstep = 0.461E+00)
 search vector abs. value=  0.612E-02
 bond charge predicted
       N       E                     dE             d eps       ncg     rms          rms(c)
DAV:   1    -0.105120830384E+03   -0.10995E-02   -0.48940E-02  8820   0.612E-01    0.446E-02
RMM:   2    -0.105124793852E+03   -0.39635E-02   -0.11881E-03  7427   0.119E-01    0.537E-01
RMM:   3    -0.105120995107E+03    0.37987E-02   -0.40202E-04  7298   0.632E-02    0.560E-02
RMM:   4    -0.105120894483E+03    0.10062E-03   -0.70936E-05  6339   0.358E-02    0.338E-02
RMM:   5    -0.105120877858E+03    0.16624E-04   -0.12606E-05  4021   0.161E-02    0.141E-02
RMM:   6    -0.105120877487E+03    0.37099E-06   -0.69622E-06  3933   0.139E-02
  23 F= -.10512088E+03 E0= -.10503142E+03  d E =-.114748E-02
 ZBRENT: can't locate minimum, use default step
 trial-energy change:   -0.001147  1 .order   -0.001155   -0.001246   -0.001065
 step:   1.8447(harm=  3.1694)  dis= 0.00622  next Energy=  -105.124012 (dE=-0.428E-02)
 bond charge predicted
       N       E                     dE             d eps       ncg     rms          rms(c)
DAV:   1    -0.105122873848E+03   -0.19960E-02   -0.44319E-01  7945   0.184E+00    0.110E-01
RMM:   2    -0.105138193254E+03   -0.15319E-01   -0.79643E-03  7245   0.316E-01    0.105E+00
RMM:   3    -0.105123946741E+03    0.14247E-01   -0.17946E-03  7269   0.142E-01    0.146E-01
RMM:   4    -0.105123468008E+03    0.47873E-03   -0.41690E-04  7167   0.814E-02    0.910E-02
RMM:   5    -0.105123344311E+03    0.12370E-03   -0.84760E-05  6978   0.322E-02    0.383E-02
RMM:   6    -0.105123332513E+03    0.11798E-04   -0.46086E-05  5497   0.248E-02    0.337E-02
RMM:   7    -0.105123326085E+03    0.64281E-05   -0.67084E-05  6951   0.304E-02
  24 F= -.10512333E+03 E0= -.10503405E+03  d E =-.359607E-02
 curvature:  -2.73 expect dE=-0.236E-02 dE for cont linesearch -0.654E-03
 ZBRENT: increasing intervall
 opt :   4.6119  next Energy=  -105.123636 (dE=-0.391E-02)
 bond charge predicted
       N       E                     dE             d eps       ncg     rms          rms(c)
DAV:   1    -0.105121579906E+03    0.17526E-02   -0.17687E+00  7455   0.367E+00    0.218E-01
RMM:   2    -0.105174047984E+03   -0.52468E-01   -0.32716E-02  7229   0.647E-01    0.193E+00
RMM:   3    -0.105126013791E+03    0.48034E-01   -0.67229E-03  7333   0.269E-01    0.298E-01
RMM:   4    -0.105124118220E+03    0.18956E-02   -0.16640E-03  7158   0.165E-01    0.182E-01
RMM:   5    -0.105123622147E+03    0.49607E-03   -0.32841E-04  7187   0.650E-02    0.758E-02
RMM:   6    -0.105123559882E+03    0.62265E-04   -0.16146E-04  7184   0.429E-02    0.585E-02
RMM:   7    -0.105123538430E+03    0.21451E-04   -0.24364E-04  7208   0.485E-02    0.440E-02
RMM:   8    -0.105123526674E+03    0.11756E-04   -0.83401E-05  7024   0.302E-02    0.318E-02
RMM:   9    -0.105123510828E+03    0.15846E-04   -0.13440E-05  3987   0.139E-02    0.135E-02
RMM:  10    -0.105123508664E+03    0.21639E-05   -0.60207E-06  3886   0.132E-02
  25 F= -.10512351E+03 E0= -.10503457E+03  d E =-.377865E-02
 curvature:  -1.29 expect dE=-0.245E-02 dE for cont linesearch -0.217E-03
 ZBRENT: bracketing found
 ZBRENT: interpolating
 opt :   3.3511  next Energy=  -105.124147 (dE=-0.442E-02)
 bond charge predicted
       N       E                     dE             d eps       ncg     rms          rms(c)
DAV:   1    -0.105123787059E+03   -0.27623E-03   -0.36869E-01  8085   0.168E+00    0.938E-02
RMM:   2    -0.105133637778E+03   -0.98507E-02   -0.62589E-03  7270   0.277E-01    0.828E-01
RMM:   3    -0.105124611504E+03    0.90263E-02   -0.13078E-03  7274   0.128E-01    0.127E-01
RMM:   4    -0.105124281806E+03    0.32970E-03   -0.32566E-04  7234   0.679E-02    0.798E-02
RMM:   5    -0.105124184542E+03    0.97264E-04   -0.63158E-05  6382   0.274E-02    0.338E-02
RMM:   6    -0.105124172222E+03    0.12321E-04   -0.31995E-05  4521   0.221E-02    0.281E-02
RMM:   7    -0.105124167662E+03    0.45599E-05   -0.62622E-05  6763   0.312E-02
  26 F= -.10512417E+03 E0= -.10503507E+03  d E =-.443765E-02
 curvature:  -3.81 expect dE=-0.339E-02 dE for cont linesearch -0.603E-05
 trial: gam= 0.31568 g(F)=  0.889E-03 g(S)=  0.000E+00 ort =-0.984E-04 (trialstep = 0.104E+01)
 search vector abs. value=  0.144E-02
 bond charge predicted
       N       E                     dE             d eps       ncg     rms          rms(c)
DAV:   1    -0.105125005499E+03   -0.83328E-03   -0.38175E-02  8470   0.531E-01    0.336E-02
RMM:   2    -0.105125443977E+03   -0.43848E-03   -0.64160E-04  7229   0.916E-02    0.168E-01
RMM:   3    -0.105125094775E+03    0.34920E-03   -0.94457E-05  6990   0.360E-02    0.553E-02
RMM:   4    -0.105125052930E+03    0.41845E-04   -0.37498E-05  4940   0.259E-02    0.258E-02
RMM:   5    -0.105125045268E+03    0.76626E-05   -0.11758E-05  3933   0.193E-02
  27 F= -.10512505E+03 E0= -.10503601E+03  d E =-.877606E-03
 ZBRENT: can't locate minimum, use default step
 trial-energy change:   -0.000878  1 .order   -0.000859   -0.000892   -0.000825
 step:   4.1567(harm= 13.8576)  dis= 0.00930  next Energy=  -105.130115 (dE=-0.595E-02)
 bond charge predicted
       N       E                     dE             d eps       ncg     rms          rms(c)
DAV:   1    -0.105126939483E+03   -0.18866E-02   -0.34209E-01  7525   0.159E+00    0.100E-01
RMM:   2    -0.105129703235E+03   -0.27638E-02   -0.54186E-03  7166   0.266E-01    0.425E-01
RMM:   3    -0.105127952756E+03    0.17505E-02   -0.79815E-04  7735   0.996E-02    0.196E-01
RMM:   4    -0.105127466420E+03    0.48634E-03   -0.31607E-04  7201   0.655E-02    0.937E-02
RMM:   5    -0.105127338201E+03    0.12822E-03   -0.84181E-05  6651   0.308E-02    0.402E-02
RMM:   6    -0.105127333125E+03    0.50764E-05   -0.83426E-05  6982   0.313E-02
  28 F= -.10512733E+03 E0= -.10503850E+03  d E =-.316546E-02
 curvature:  -4.96 expect dE=-0.260E-02 dE for cont linesearch -0.141E-02
 ZBRENT: increasing intervall
 opt :  10.3917  next Energy=  -105.130342 (dE=-0.617E-02)
 bond charge predicted
       N       E                     dE             d eps       ncg     rms          rms(c)
DAV:   1    -0.105128494810E+03   -0.11566E-02   -0.13666E+00  7420   0.318E+00    0.197E-01
RMM:   2    -0.105142696726E+03   -0.14202E-01   -0.22873E-02  7175   0.549E-01    0.969E-01
RMM:   3    -0.105131861221E+03    0.10836E-01   -0.34351E-03  8045   0.196E-01    0.317E-01
RMM:   4    -0.105130594515E+03    0.12667E-02   -0.11609E-03  7145   0.129E-01    0.169E-01
RMM:   5    -0.105130210112E+03    0.38440E-03   -0.30322E-04  7189   0.595E-02    0.896E-02
RMM:   6    -0.105130210251E+03   -0.13891E-06   -0.24554E-04  7144   0.556E-02    0.813E-02
RMM:   7    -0.105130139913E+03    0.70338E-04   -0.23094E-04  7157   0.485E-02    0.377E-02
RMM:   8    -0.105130133779E+03    0.61335E-05   -0.76257E-05  6660   0.298E-02
  29 F= -.10513013E+03 E0= -.10504171E+03  d E =-.596612E-02
 curvature: -10.62 expect dE=-0.584E-02 dE for cont linesearch -0.572E-03
 ZBRENT: increasing intervall
 opt :  22.8617  next Energy=  -105.129113 (dE=-0.495E-02)
 bond charge predicted
       N       E                     dE             d eps       ncg     rms          rms(c)
DAV:   1    -0.105121266670E+03    0.88732E-02   -0.54643E+00  7140   0.635E+00    0.398E-01
RMM:   2    -0.105190401200E+03   -0.69135E-01   -0.98776E-02  7152   0.122E+00    0.215E+00
RMM:   3    -0.105134828172E+03    0.55573E-01   -0.15879E-02  8195   0.391E-01    0.592E-01
RMM:   4    -0.105130217531E+03    0.46106E-02   -0.45076E-03  7145   0.256E-01    0.341E-01
RMM:   5    -0.105128602618E+03    0.16149E-02   -0.11625E-03  7175   0.118E-01    0.176E-01
RMM:   6    -0.105128561200E+03    0.41418E-04   -0.97975E-04  7146   0.108E-01    0.157E-01
RMM:   7    -0.105128335837E+03    0.22536E-03   -0.94282E-04  7168   0.992E-02    0.844E-02
RMM:   8    -0.105128292007E+03    0.43830E-04   -0.33522E-04  7257   0.622E-02    0.596E-02
RMM:   9    -0.105128246240E+03    0.45767E-04   -0.59628E-05  6319   0.270E-02    0.366E-02
RMM:  10    -0.105128232523E+03    0.13717E-04   -0.18306E-05  4061   0.187E-02    0.235E-02
RMM:  11    -0.105128225797E+03    0.67258E-05   -0.19969E-05  4111   0.196E-02
  30 F= -.10512823E+03 E0= -.10504052E+03  d E =-.405814E-02
 curvature:  18.96 expect dE= 0.625E-01 dE for cont linesearch  0.453E-02
 ZBRENT: bracketing found
 ZBRENT: interpolating
 opt :  14.4057  next Energy=  -105.130692 (dE=-0.652E-02)
 bond charge predicted
       N       E                     dE             d eps       ncg     rms          rms(c)
DAV:   1    -0.105127661053E+03    0.57147E-03   -0.25187E+00  7420   0.431E+00    0.255E-01
RMM:   2    -0.105152762846E+03   -0.25102E-01   -0.40904E-02  7171   0.739E-01    0.127E+00
RMM:   3    -0.105132892558E+03    0.19870E-01   -0.58947E-03  7375   0.291E-01    0.354E-01
RMM:   4    -0.105131596360E+03    0.12962E-02   -0.19395E-03  7243   0.159E-01    0.234E-01
RMM:   5    -0.105130825220E+03    0.77114E-03   -0.48686E-04  7154   0.761E-02    0.108E-01
RMM:   6    -0.105130799696E+03    0.25523E-04   -0.41577E-04  7149   0.706E-02    0.101E-01
RMM:   7    -0.105130691885E+03    0.10781E-03   -0.38582E-04  7159   0.648E-02    0.546E-02
RMM:   8    -0.105130671347E+03    0.20538E-04   -0.12664E-04  7293   0.383E-02    0.363E-02
RMM:   9    -0.105130649514E+03    0.21833E-04   -0.21480E-05  4149   0.182E-02    0.162E-02
RMM:  10    -0.105130646503E+03    0.30112E-05   -0.98537E-06  3908   0.165E-02
  31 F= -.10513065E+03 E0= -.10504246E+03  d E =-.647884E-02
 curvature:  -2.34 expect dE=-0.231E-02 dE for cont linesearch -0.297E-07
 trial: gam= 1.06705 g(F)=  0.988E-03 g(S)=  0.000E+00 ort =-0.427E-05 (trialstep = 0.204E+01)
 search vector abs. value=  0.262E-02
 bond charge predicted
       N       E                     dE             d eps       ncg     rms          rms(c)
DAV:   1    -0.105131780559E+03   -0.11310E-02   -0.15120E-01  8610   0.108E+00    0.894E-02
RMM:   2    -0.105134113528E+03   -0.23330E-02   -0.31844E-03  7247   0.186E-01    0.399E-01
RMM:   3    -0.105132315474E+03    0.17981E-02   -0.43720E-04  7278   0.737E-02    0.154E-01
RMM:   4    -0.105132027204E+03    0.28827E-03   -0.21500E-04  7152   0.530E-02    0.816E-02
RMM:   5    -0.105131941790E+03    0.85414E-04   -0.57340E-05  6151   0.293E-02    0.367E-02
RMM:   6    -0.105131940538E+03    0.12517E-05   -0.43856E-05  5369   0.268E-02
  32 F= -.10513194E+03 E0= -.10504381E+03  d E =-.129404E-02
 trial-energy change:   -0.001294  1 .order   -0.001294   -0.002006   -0.000581
 step:   2.8724(harm=  2.8724)  dis= 0.00926  next Energy=  -105.132059 (dE=-0.141E-02)
 bond charge predicted
       N       E                     dE             d eps       ncg     rms          rms(c)
DAV:   1    -0.105131998832E+03   -0.57042E-04   -0.25065E-02  8890   0.445E-01    0.406E-02
RMM:   2    -0.105132259042E+03   -0.26021E-03   -0.59221E-04  7188   0.836E-02    0.128E-01
RMM:   3    -0.105132203349E+03    0.55693E-04   -0.85878E-05  6830   0.330E-02    0.114E-01
RMM:   4    -0.105132036110E+03    0.16724E-03   -0.60336E-05  6330   0.307E-02    0.277E-02
RMM:   5    -0.105132027290E+03    0.88200E-05   -0.96748E-06  3955   0.149E-02
  33 F= -.10513203E+03 E0= -.10504391E+03  d E =-.138079E-02
 curvature:  -3.82 expect dE=-0.439E-02 dE for cont linesearch -0.505E-06
 trial: gam= 1.19887 g(F)=  0.115E-02 g(S)=  0.000E+00 ort =-0.186E-04 (trialstep = 0.119E+01)
 search vector abs. value=  0.486E-02
 bond charge predicted
       N       E                     dE             d eps       ncg     rms          rms(c)
DAV:   1    -0.105133108357E+03   -0.10722E-02   -0.10128E-01  8575   0.874E-01    0.562E-02
RMM:   2    -0.105134460833E+03   -0.13525E-02   -0.16353E-03  7210   0.148E-01    0.296E-01
RMM:   3    -0.105133325932E+03    0.11349E-02   -0.23360E-04  7360   0.553E-02    0.678E-02
RMM:   4    -0.105133284074E+03    0.41858E-04   -0.80897E-05  6783   0.342E-02    0.514E-02
RMM:   5    -0.105133254762E+03    0.29312E-04   -0.22540E-05  4167   0.198E-02    0.286E-02
RMM:   6    -0.105133254925E+03   -0.16313E-06   -0.24029E-05  4175   0.240E-02
  34 F= -.10513325E+03 E0= -.10504515E+03  d E =-.122764E-02
 ZBRENT: can't locate minimum, use default step
 trial-energy change:   -0.001228  1 .order   -0.001212   -0.001338   -0.001087
 step:   4.7461(harm=  6.3088)  dis= 0.02588  next Energy=  -105.135585 (dE=-0.356E-02)
 bond charge predicted
       N       E                     dE             d eps       ncg     rms          rms(c)
DAV:   1    -0.105134016092E+03   -0.76133E-03   -0.90916E-01  8505   0.262E+00    0.162E-01
RMM:   2    -0.105145612342E+03   -0.11596E-01   -0.14800E-02  7207   0.438E-01    0.876E-01
RMM:   3    -0.105136102422E+03    0.95099E-02   -0.21218E-03  7407   0.166E-01    0.222E-01
RMM:   4    -0.105135544327E+03    0.55809E-03   -0.75695E-04  7159   0.106E-01    0.148E-01
RMM:   5    -0.105135283166E+03    0.26116E-03   -0.20393E-04  7149   0.508E-02    0.684E-02
RMM:   6    -0.105135304933E+03   -0.21767E-04   -0.16934E-04  7140   0.475E-02    0.668E-02
RMM:   7    -0.105135268640E+03    0.36293E-04   -0.13378E-04  7137   0.384E-02    0.335E-02
RMM:   8    -0.105135256383E+03    0.12258E-04   -0.35294E-05  4917   0.224E-02    0.196E-02
RMM:   9    -0.105135251498E+03    0.48843E-05   -0.10052E-05  3925   0.188E-02
  35 F= -.10513525E+03 E0= -.10504732E+03  d E =-.322421E-02
 curvature: -12.34 expect dE=-0.645E-02 dE for cont linesearch -0.140E-03
 ZBRENT: extrapolating
 opt :   5.9721  next Energy=  -105.135395 (dE=-0.337E-02)
 bond charge predicted
       N       E                     dE             d eps       ncg     rms          rms(c)
DAV:   1    -0.105135219956E+03    0.36426E-04   -0.10737E-01  8050   0.899E-01    0.578E-02
RMM:   2    -0.105137142016E+03   -0.19221E-02   -0.18825E-03  7232   0.152E-01    0.361E-01
RMM:   3    -0.105135476799E+03    0.16652E-02   -0.30576E-04  7348   0.621E-02    0.733E-02
RMM:   4    -0.105135410155E+03    0.66644E-04   -0.95326E-05  7020   0.378E-02    0.522E-02
RMM:   5    -0.105135377432E+03    0.32723E-04   -0.20796E-05  4148   0.183E-02    0.242E-02
RMM:   6    -0.105135378829E+03   -0.13975E-05   -0.19763E-05  4013   0.227E-02
  36 F= -.10513538E+03 E0= -.10504748E+03  d E =-.335154E-02
 curvature: -12.71 expect dE=-0.103E-01 dE for cont linesearch -0.581E-06
 trial: gam= 0.77856 g(F)=  0.808E-03 g(S)=  0.000E+00 ort =-0.149E-04 (trialstep = 0.214E+01)
 search vector abs. value=  0.373E-02
 bond charge predicted
       N       E                     dE             d eps       ncg     rms          rms(c)
DAV:   1    -0.105136665308E+03   -0.12879E-02   -0.21765E-01  7770   0.131E+00    0.838E-02
RMM:   2    -0.105137157430E+03   -0.49212E-03   -0.34417E-03  7144   0.205E-01    0.114E-01
RMM:   3    -0.105137652247E+03   -0.49482E-03   -0.34025E-04  7744   0.708E-02    0.218E-01
RMM:   4    -0.105137097986E+03    0.55426E-03   -0.18760E-04  7181   0.493E-02    0.729E-02
RMM:   5    -0.105137023143E+03    0.74843E-04   -0.60800E-05  6436   0.302E-02    0.331E-02
RMM:   6    -0.105137034223E+03   -0.11079E-04   -0.41595E-05  5231   0.255E-02    0.387E-02
RMM:   7    -0.105137023432E+03    0.10791E-04   -0.24363E-05  4172   0.235E-02    0.254E-02
RMM:   8    -0.105137015469E+03    0.79630E-05   -0.12718E-05  3950   0.203E-02
  37 F= -.10513702E+03 E0= -.10504915E+03  d E =-.163664E-02
 ZBRENT: can't locate minimum, use default step
 trial-energy change:   -0.001637  1 .order   -0.001658   -0.001708   -0.001608
 step:   8.5745(harm= 36.4466)  dis= 0.04412  next Energy=  -105.149899 (dE=-0.145E-01)
 bond charge predicted
       N       E                     dE             d eps       ncg     rms          rms(c)
DAV:   1    -0.105137997501E+03   -0.97407E-03   -0.19523E+00  7140   0.393E+00    0.244E-01
RMM:   2    -0.105144383765E+03   -0.63863E-02   -0.31606E-02  7144   0.630E-01    0.498E-01
RMM:   3    -0.105143588076E+03    0.79569E-03   -0.29040E-03  7851   0.210E-01    0.435E-01
RMM:   4    -0.105141575440E+03    0.20126E-02   -0.13445E-03  7141   0.138E-01    0.181E-01
RMM:   5    -0.105141251619E+03    0.32382E-03   -0.47335E-04  7140   0.845E-02    0.109E-01
RMM:   6    -0.105141273582E+03   -0.21963E-04   -0.38154E-04  7147   0.714E-02    0.102E-01
RMM:   7    -0.105141244587E+03    0.28995E-04   -0.22321E-04  7156   0.517E-02    0.832E-02
RMM:   8    -0.105141144698E+03    0.99889E-04   -0.87478E-05  6998   0.341E-02    0.248E-02
RMM:   9    -0.105141140508E+03    0.41898E-05   -0.11025E-05  4042   0.130E-02
  38 F= -.10514114E+03 E0= -.10505332E+03  d E =-.576168E-02
 curvature: -29.02 expect dE=-0.207E-01 dE for cont linesearch -0.253E-02
 ZBRENT: increasing intervall
 opt :  21.4364  next Energy=  -105.146181 (dE=-0.108E-01)
 bond charge predicted
       N       E                     dE             d eps       ncg     rms          rms(c)
DAV:   1    -0.105132829915E+03    0.83148E-02   -0.77649E+00  7140   0.785E+00    0.485E-01
RMM:   2    -0.105153976310E+03   -0.21146E-01   -0.12780E-01  7144   0.134E+00    0.813E-01
RMM:   3    -0.105158174217E+03   -0.41979E-02   -0.13332E-02  8750   0.411E-01    0.981E-01
RMM:   4    -0.105147542264E+03    0.10632E-01   -0.52839E-03  7145   0.269E-01    0.360E-01
RMM:   5    -0.105146141003E+03    0.14013E-02   -0.19060E-03  7140   0.168E-01    0.212E-01
RMM:   6    -0.105146387242E+03   -0.24624E-03   -0.16720E-03  7155   0.148E-01    0.217E-01
RMM:   7    -0.105146210317E+03    0.17693E-03   -0.92911E-04  7182   0.104E-01    0.169E-01
RMM:   8    -0.105145801530E+03    0.40879E-03   -0.34736E-04  7141   0.667E-02    0.557E-02
RMM:   9    -0.105145782183E+03    0.19347E-04   -0.56610E-05  5916   0.267E-02    0.386E-02
RMM:  10    -0.105145779755E+03    0.24275E-05   -0.21159E-05  4230   0.194E-02
  39 F= -.10514578E+03 E0= -.10505805E+03  d E =-.104009E-01
 curvature: -57.75 expect dE=-0.863E-01 dE for cont linesearch -0.534E-03
 trial: gam= 1.30540 g(F)=  0.149E-02 g(S)=  0.000E+00 ort = 0.186E-03 (trialstep = 0.269E+01)
 search vector abs. value=  0.834E-02
 bond charge predicted
       N       E                     dE             d eps       ncg     rms          rms(c)
DAV:   1    -0.105148604541E+03   -0.28224E-02   -0.99419E-01  7560   0.290E+00    0.238E-01
RMM:   2    -0.105173455676E+03   -0.24851E-01   -0.21896E-02  7255   0.460E-01    0.129E+00
RMM:   3    -0.105151834426E+03    0.21621E-01   -0.35353E-03  7282   0.205E-01    0.326E-01
RMM:   4    -0.105150598419E+03    0.12360E-02   -0.16165E-03  7162   0.145E-01    0.214E-01
RMM:   5    -0.105150062587E+03    0.53583E-03   -0.46513E-04  7142   0.788E-02    0.102E-01
RMM:   6    -0.105149980080E+03    0.82506E-04   -0.26968E-04  7139   0.618E-02    0.690E-02
RMM:   7    -0.105149966679E+03    0.13402E-04   -0.15822E-04  7137   0.454E-02    0.508E-02
RMM:   8    -0.105149949683E+03    0.16996E-04   -0.64440E-05  6542   0.302E-02    0.295E-02
RMM:   9    -0.105149946593E+03    0.30891E-05   -0.10317E-05  4086   0.144E-02
  40 F= -.10514995E+03 E0= -.10506213E+03  d E =-.416684E-02
 ZBRENT: can't locate minimum, use default step
 trial-energy change:   -0.004167  1 .order   -0.004152   -0.004667   -0.003637
 step:  10.7457(harm= 12.1748)  dis= 0.07956  next Energy=  -105.156354 (dE=-0.106E-01)
 bond charge predicted
       N       E                     dE             d eps       ncg     rms          rms(c)
DAV:   1    -0.105144367465E+03    0.55822E-02   -0.88818E+00  7140   0.868E+00    0.693E-01
RMM:   2    -0.105347209262E+03   -0.20284E+00   -0.18846E-01  7224   0.140E+00    0.359E+00
RMM:   3    -0.105170316427E+03    0.17689E+00   -0.29217E-02  7260   0.608E-01    0.887E-01
RMM:   4    -0.105162217773E+03    0.80987E-02   -0.12853E-02  7171   0.407E-01    0.643E-01
RMM:   5    -0.105157324098E+03    0.48937E-02   -0.38807E-03  7142   0.229E-01    0.298E-01
RMM:   6    -0.105156743777E+03    0.58032E-03   -0.24095E-03  7140   0.182E-01    0.198E-01
RMM:   7    -0.105156587105E+03    0.15667E-03   -0.13344E-03  7142   0.131E-01    0.148E-01
RMM:   8    -0.105156368738E+03    0.21837E-03   -0.51922E-04  7141   0.859E-02    0.791E-02
RMM:   9    -0.105156310473E+03    0.58265E-04   -0.86464E-05  7084   0.341E-02    0.435E-02
RMM:  10    -0.105156310874E+03   -0.40073E-06   -0.22087E-05  4308   0.186E-02
  41 F= -.10515631E+03 E0= -.10506824E+03  d E =-.105311E-01
 curvature: -28.57 expect dE=-0.332E+00 dE for cont linesearch -0.190E-03
 trial: gam= 8.26828 g(F)=  0.116E-01 g(S)=  0.000E+00 ort = 0.236E-03 (trialstep = 0.612E-01)
 search vector abs. value=  0.586E+00
 bond charge predicted
       N       E                     dE             d eps       ncg     rms          rms(c)
DAV:   1    -0.105157121498E+03   -0.81102E-03   -0.29301E-02  9345   0.497E-01    0.419E-02
RMM:   2    -0.105157632600E+03   -0.51110E-03   -0.62515E-04  7229   0.853E-02    0.176E-01
RMM:   3    -0.105157268613E+03    0.36399E-03   -0.91422E-05  6891   0.310E-02    0.756E-02
RMM:   4    -0.105157204133E+03    0.64480E-04   -0.54395E-05  6210   0.304E-02    0.315E-02
RMM:   5    -0.105157209695E+03   -0.55619E-05   -0.15838E-05  4119   0.186E-02
  42 F= -.10515721E+03 E0= -.10506915E+03  d E =-.898821E-03
 trial-energy change:   -0.000899  1 .order   -0.000834   -0.000830   -0.000838
 step:   0.1261(harm=  0.2448)  dis= 0.00827  next Energy=  -105.157731 (dE=-0.142E-02)
 bond charge predicted
       N       E                     dE             d eps       ncg     rms          rms(c)
DAV:   1    -0.105158053512E+03   -0.84938E-03   -0.32688E-02  9030   0.526E-01    0.465E-02
RMM:   2    -0.105158226919E+03   -0.17341E-03   -0.62743E-04  7196   0.846E-02    0.888E-02
RMM:   3    -0.105158351586E+03   -0.12467E-03   -0.96830E-05  7044   0.353E-02    0.130E-01
RMM:   4    -0.105158136040E+03    0.21555E-03   -0.38472E-05  5105   0.228E-02    0.433E-02
RMM:   5    -0.105158122901E+03    0.13139E-04   -0.24071E-05  4175   0.245E-02    0.237E-02
RMM:   6    -0.105158123491E+03   -0.59009E-06   -0.14869E-05  4077   0.210E-02
  43 F= -.10515812E+03 E0= -.10507004E+03  d E =-.181262E-02
 curvature:  -2.79 expect dE=-0.305E-01 dE for cont linesearch -0.903E-03
 ZBRENT: increasing intervall
 opt :   0.2557  next Energy=  -105.159921 (dE=-0.361E-02)
 bond charge predicted
       N       E                     dE             d eps       ncg     rms          rms(c)
DAV:   1    -0.105159728129E+03   -0.16052E-02   -0.13021E-01  8225   0.105E+00    0.786E-02
RMM:   2    -0.105160323116E+03   -0.59499E-03   -0.22343E-03  7156   0.156E-01    0.170E-01
RMM:   3    -0.105160214719E+03    0.10840E-03   -0.22239E-04  7406   0.564E-02    0.143E-01
RMM:   4    -0.105160015962E+03    0.19876E-03   -0.16235E-04  7133   0.472E-02    0.754E-02
RMM:   5    -0.105159959378E+03    0.56585E-04   -0.54752E-05  5960   0.287E-02    0.424E-02
RMM:   6    -0.105159941433E+03    0.17944E-04   -0.32391E-05  4521   0.262E-02    0.250E-02
RMM:   7    -0.105159940861E+03    0.57236E-06   -0.18182E-05  4050   0.220E-02
  44 F= -.10515994E+03 E0= -.10507182E+03  d E =-.362999E-02
 curvature:  -5.55 expect dE=-0.574E-01 dE for cont linesearch -0.192E-02
 ZBRENT: increasing intervall
 opt :   0.5151  next Energy=  -105.163760 (dE=-0.745E-02)
 bond charge predicted
       N       E                     dE             d eps       ncg     rms          rms(c)
DAV:   1    -0.105162811225E+03   -0.28698E-02   -0.51940E-01  7140   0.209E+00    0.157E-01
RMM:   2    -0.105166873038E+03   -0.40618E-02   -0.93782E-03  7155   0.324E-01    0.485E-01
RMM:   3    -0.105164360206E+03    0.25128E-02   -0.10041E-03  7432   0.117E-01    0.223E-01
RMM:   4    -0.105163910304E+03    0.44990E-03   -0.62490E-04  7142   0.928E-02    0.139E-01
RMM:   5    -0.105163745289E+03    0.16501E-03   -0.21358E-04  7144   0.550E-02    0.881E-02
RMM:   6    -0.105163647593E+03    0.97696E-04   -0.14264E-04  7131   0.457E-02    0.416E-02
RMM:   7    -0.105163650724E+03   -0.31312E-05   -0.63593E-05  6585   0.299E-02
  45 F= -.10516365E+03 E0= -.10507548E+03  d E =-.733985E-02
 curvature: -11.02 expect dE=-0.101E+00 dE for cont linesearch -0.390E-02
 ZBRENT: increasing intervall
 opt :   1.0339  next Energy=  -105.171207 (dE=-0.149E-01)
 bond charge predicted
       N       E                     dE             d eps       ncg     rms          rms(c)
DAV:   1    -0.105167527366E+03   -0.38798E-02   -0.20656E+00  7140   0.417E+00    0.313E-01
RMM:   2    -0.105184714038E+03   -0.17187E-01   -0.36862E-02  7155   0.649E-01    0.100E+00
RMM:   3    -0.105173202620E+03    0.11511E-01   -0.39902E-03  7414   0.235E-01    0.413E-01
RMM:   4    -0.105171795882E+03    0.14067E-02   -0.24036E-03  7143   0.182E-01    0.271E-01
RMM:   5    -0.105171181928E+03    0.61395E-03   -0.82624E-04  7143   0.108E-01    0.174E-01
RMM:   6    -0.105170825420E+03    0.35651E-03   -0.56221E-04  7140   0.903E-02    0.837E-02
RMM:   7    -0.105170829349E+03   -0.39294E-05   -0.24475E-04  7142   0.580E-02    0.745E-02
RMM:   8    -0.105170753204E+03    0.76145E-04   -0.84159E-05  6951   0.352E-02    0.251E-02
RMM:   9    -0.105170752206E+03    0.99790E-06   -0.12690E-05  4075   0.147E-02
  46 F= -.10517075E+03 E0= -.10508253E+03  d E =-.144413E-01
 curvature: -21.33 expect dE=-0.154E+00 dE for cont linesearch -0.671E-02
 ZBRENT: increasing intervall
 opt :   2.0714  next Energy=  -105.183972 (dE=-0.277E-01)
 bond charge predicted
       N       E                     dE             d eps       ncg     rms          rms(c)
DAV:   1    -0.105170521098E+03    0.23211E-03   -0.81621E+00  7140   0.832E+00    0.619E-01
RMM:   2    -0.105222618307E+03   -0.52097E-01   -0.14102E-01  7147   0.132E+00    0.169E+00
RMM:   3    -0.105193156595E+03    0.29462E-01   -0.15009E-02  7592   0.451E-01    0.864E-01
RMM:   4    -0.105186757571E+03    0.63990E-02   -0.92481E-03  7141   0.361E-01    0.518E-01
RMM:   5    -0.105184610578E+03    0.21470E-02   -0.32496E-03  7142   0.217E-01    0.340E-01
RMM:   6    -0.105183409347E+03    0.12012E-02   -0.21514E-03  7140   0.175E-01    0.187E-01
RMM:   7    -0.105183416788E+03   -0.74407E-05   -0.10810E-03  7144   0.121E-01    0.166E-01
RMM:   8    -0.105183015348E+03    0.40144E-03   -0.36896E-04  7140   0.747E-02    0.498E-02
RMM:   9    -0.105183006219E+03    0.91285E-05   -0.63532E-05  6344   0.298E-02
  47 F= -.10518301E+03 E0= -.10509463E+03  d E =-.266953E-01
 curvature: -42.03 expect dE=-0.236E+00 dE for cont linesearch -0.624E-02
 ZBRENT: increasing intervall
 opt :   4.1464  next Energy=  -105.193532 (dE=-0.372E-01)
 bond charge predicted
       N       E                     dE             d eps       ncg     rms          rms(c)
DAV:   1    -0.105137825218E+03    0.45190E-01   -0.31758E+01  7140   0.165E+01    0.122E+00
RMM:   2    -0.105253336869E+03   -0.11551E+00   -0.54189E-01  7148   0.282E+00    0.224E+00
RMM:   3    -0.105248560570E+03    0.47763E-02   -0.63950E-02  8671   0.849E-01    0.215E+00
RMM:   4    -0.105198971269E+03    0.49589E-01   -0.35046E-02  7141   0.702E-01    0.936E-01
RMM:   5    -0.105191387095E+03    0.75842E-02   -0.12386E-02  7142   0.431E-01    0.644E-01
RMM:   6    -0.105188726741E+03    0.26604E-02   -0.83321E-03  7141   0.340E-01    0.452E-01
RMM:   7    -0.105188002686E+03    0.72405E-03   -0.45518E-03  7147   0.243E-01    0.349E-01
RMM:   8    -0.105186180517E+03    0.18222E-02   -0.15497E-03  7144   0.150E-01    0.112E-01
RMM:   9    -0.105186127765E+03    0.52752E-04   -0.29510E-04  7212   0.630E-02    0.827E-02
RMM:  10    -0.105186163708E+03   -0.35943E-04   -0.12427E-04  7146   0.373E-02    0.528E-02
RMM:  11    -0.105186191582E+03   -0.27874E-04   -0.48700E-05  5600   0.242E-02    0.342E-02
RMM:  12    -0.105186282732E+03   -0.91150E-04   -0.46787E-05  5215   0.237E-02    0.302E-02
RMM:  13    -0.105186306216E+03   -0.23484E-04   -0.10910E-05  4183   0.132E-02    0.273E-02
RMM:  14    -0.105186339102E+03   -0.32886E-04   -0.94657E-06  4181   0.115E-02    0.275E-02
RMM:  15    -0.105186363806E+03   -0.24704E-04   -0.90119E-06  4189   0.972E-03    0.237E-02
RMM:  16    -0.105186385868E+03   -0.22062E-04   -0.99180E-06  4266   0.904E-03    0.194E-02
RMM:  17    -0.105186404489E+03   -0.18620E-04   -0.14232E-05  4388   0.929E-03    0.111E-02
RMM:  18    -0.105186410077E+03   -0.55888E-05   -0.59829E-06  4023   0.706E-03
  48 F= -.10518641E+03 E0= -.10509767E+03  d E =-.300992E-01
 curvature: -70.94 expect dE=-0.223E+01 dE for cont linesearch -0.859E-02
 ZBRENT: bracketing found
 ZBRENT: interpolating
 opt :   3.1615  next Energy=  -105.190559 (dE=-0.342E-01)
 bond charge predicted
       N       E                     dE             d eps       ncg     rms          rms(c)
DAV:   1    -0.105179011117E+03    0.73934E-02   -0.71396E+00  7140   0.784E+00    0.567E-01
RMM:   2    -0.105219553854E+03   -0.40543E-01   -0.11811E-01  7147   0.119E+00    0.148E+00
RMM:   3    -0.105197462537E+03    0.22091E-01   -0.11931E-02  7901   0.370E-01    0.752E-01
RMM:   4    -0.105192109244E+03    0.53533E-02   -0.71556E-03  7140   0.319E-01    0.443E-01
RMM:   5    -0.105190648342E+03    0.14609E-02   -0.29059E-03  7140   0.203E-01    0.301E-01
RMM:   6    -0.105189924289E+03    0.72405E-03   -0.19568E-03  7141   0.165E-01    0.196E-01
RMM:   7    -0.105189610763E+03    0.31353E-03   -0.76937E-04  7144   0.103E-01    0.134E-01
RMM:   8    -0.105189324138E+03    0.28662E-03   -0.26604E-04  7106   0.640E-02    0.402E-02
RMM:   9    -0.105189310501E+03    0.13637E-04   -0.49962E-05  5722   0.276E-02    0.279E-02
RMM:  10    -0.105189308801E+03    0.16998E-05   -0.20753E-05  4107   0.218E-02
  49 F= -.10518931E+03 E0= -.10510074E+03  d E =-.329979E-01
 curvature: -34.25 expect dE=-0.436E+00 dE for cont linesearch -0.150E-03
 trial: gam= 1.39647 g(F)=  0.127E-01 g(S)=  0.000E+00 ort = 0.160E-02 (trialstep = 0.344E+00)
 search vector abs. value=  0.116E+01
 bond charge predicted
       N       E                     dE             d eps       ncg     rms          rms(c)
DAV:   1    -0.105191967314E+03   -0.26568E-02   -0.17628E+00  7455   0.392E+00    0.302E-01
RMM:   2    -0.105214835974E+03   -0.22869E-01   -0.29674E-02  7205   0.570E-01    0.119E+00
RMM:   3    -0.105195883334E+03    0.18953E-01   -0.36692E-03  7276   0.217E-01    0.312E-01
RMM:   4    -0.105195562896E+03    0.32044E-03   -0.21696E-03  7151   0.170E-01    0.287E-01
RMM:   5    -0.105194711702E+03    0.85119E-03   -0.83697E-04  7142   0.108E-01    0.149E-01
RMM:   6    -0.105194459446E+03    0.25226E-03   -0.54409E-04  7140   0.888E-02    0.867E-02
RMM:   7    -0.105194406567E+03    0.52879E-04   -0.20198E-04  7144   0.533E-02    0.620E-02
RMM:   8    -0.105194350086E+03    0.56482E-04   -0.64994E-05  6598   0.320E-02    0.214E-02
RMM:   9    -0.105194344446E+03    0.56399E-05   -0.10134E-05  3961   0.146E-02
  50 F= -.10519434E+03 E0= -.10510569E+03  d E =-.503564E-02
 ZBRENT: can't locate minimum, use default step
 trial-energy change:   -0.005036  1 .order   -0.004945   -0.005156   -0.004734
 step:   1.3766(harm=  4.1978)  dis= 0.12568  next Energy=  -105.220755 (dE=-0.314E-01)
 bond charge predicted
       N       E                     dE             d eps       ncg     rms          rms(c)
DAV:   1    -0.105181580663E+03    0.12769E-01   -0.15601E+01  7140   0.117E+01    0.889E-01
RMM:   2    -0.105276434089E+03   -0.94853E-01   -0.24606E-01  7155   0.174E+00    0.228E+00
RMM:   3    -0.105219466978E+03    0.56967E-01   -0.26072E-02  7463   0.592E-01    0.113E+00
RMM:   4    -0.105212540274E+03    0.69267E-02   -0.18170E-02  7146   0.498E-01    0.841E-01
RMM:   5    -0.105205173522E+03    0.73668E-02   -0.68696E-03  7145   0.314E-01    0.449E-01
RMM:   6    -0.105203072273E+03    0.21012E-02   -0.45579E-03  7142   0.258E-01    0.250E-01
RMM:   7    -0.105202811027E+03    0.26125E-03   -0.17254E-03  7146   0.155E-01    0.193E-01
RMM:   8    -0.105202297113E+03    0.51391E-03   -0.54663E-04  7146   0.921E-02    0.697E-02
RMM:   9    -0.105202287897E+03    0.92156E-05   -0.10355E-04  7113   0.373E-02    0.497E-02
RMM:  10    -0.105202319541E+03   -0.31644E-04   -0.39547E-05  5066   0.229E-02    0.403E-02
RMM:  11    -0.105202361396E+03   -0.41855E-04   -0.35942E-05  4804   0.263E-02    0.289E-02
RMM:  12    -0.105202387679E+03   -0.26283E-04   -0.17461E-05  4240   0.184E-02    0.207E-02
RMM:  13    -0.105202411840E+03   -0.24161E-04   -0.87225E-06  4137   0.120E-02    0.208E-02
RMM:  14    -0.105202424295E+03   -0.12455E-04   -0.45938E-06  4081   0.896E-03    0.182E-02
RMM:  15    -0.105202447561E+03   -0.23267E-04   -0.89872E-06  4200   0.815E-03    0.162E-02
RMM:  16    -0.105202462091E+03   -0.14530E-04   -0.73189E-06  4176   0.742E-03    0.125E-02
RMM:  17    -0.105202469624E+03   -0.75323E-05   -0.46840E-06  3940   0.654E-03
  51 F= -.10520247E+03 E0= -.10511349E+03  d E =-.131608E-01
 curvature: -75.39 expect dE=-0.256E+01 dE for cont linesearch -0.466E-05
 trial: gam= 1.18313 g(F)=  0.339E-01 g(S)=  0.000E+00 ort = 0.268E-03 (trialstep = 0.385E+00)
 search vector abs. value=  0.166E+01
 bond charge predicted
       N       E                     dE             d eps       ncg     rms          rms(c)
DAV:   1    -0.105210566679E+03   -0.81046E-02   -0.38050E+00  7140   0.586E+00    0.452E-01
RMM:   2    -0.105248398807E+03   -0.37832E-01   -0.60913E-02  7180   0.796E-01    0.151E+00
RMM:   3    -0.105220149115E+03    0.28250E-01   -0.74374E-03  7289   0.306E-01    0.602E-01
RMM:   4    -0.105217708494E+03    0.24406E-02   -0.49326E-03  7172   0.247E-01    0.442E-01
RMM:   5    -0.105215487127E+03    0.22214E-02   -0.19741E-03  7151   0.160E-01    0.210E-01
RMM:   6    -0.105215094798E+03    0.39233E-03   -0.11876E-03  7144   0.129E-01    0.134E-01
RMM:   7    -0.105214895974E+03    0.19882E-03   -0.45739E-04  7150   0.801E-02    0.770E-02
RMM:   8    -0.105214840382E+03    0.55591E-04   -0.15152E-04  7111   0.478E-02    0.446E-02
RMM:   9    -0.105214821166E+03    0.19216E-04   -0.20214E-05  4210   0.189E-02    0.235E-02
RMM:  10    -0.105214832851E+03   -0.11684E-04   -0.11539E-05  4061   0.175E-02    0.233E-02
RMM:  11    -0.105214849364E+03   -0.16514E-04   -0.13837E-05  4217   0.153E-02    0.175E-02
RMM:  12    -0.105214854414E+03   -0.50496E-05   -0.48366E-06  4042   0.104E-02
  52 F= -.10521485E+03 E0= -.10512569E+03  d E =-.123848E-01
 ZBRENT: can't locate minimum, use default step
 trial-energy change:   -0.012385  1 .order   -0.012424   -0.013178   -0.011670
 step:   1.5407(harm=  3.3669)  dis= 0.15920  next Energy=  -105.260064 (dE=-0.576E-01)
 bond charge predicted
       N       E                     dE             d eps       ncg     rms          rms(c)
DAV:   1    -0.105200419165E+03    0.14430E-01   -0.33668E+01  7140   0.176E+01    0.134E+00
RMM:   2    -0.105453683680E+03   -0.25326E+00   -0.51756E-01  7172   0.244E+00    0.380E+00
RMM:   3    -0.105283974754E+03    0.16971E+00   -0.59244E-02  7299   0.882E-01    0.179E+00
RMM:   4    -0.105267693817E+03    0.16281E-01   -0.43459E-02  7172   0.743E-01    0.140E+00
RMM:   5    -0.105244196617E+03    0.23497E-01   -0.16674E-02  7150   0.477E-01    0.627E-01
RMM:   6    -0.105240526503E+03    0.36701E-02   -0.97755E-03  7149   0.374E-01    0.374E-01
RMM:   7    -0.105239540405E+03    0.98610E-03   -0.37895E-03  7152   0.231E-01    0.251E-01
RMM:   8    -0.105238826607E+03    0.71380E-03   -0.12383E-03  7154   0.137E-01    0.121E-01
RMM:   9    -0.105238739802E+03    0.86805E-04   -0.20852E-04  7205   0.509E-02    0.781E-02
RMM:  10    -0.105238838913E+03   -0.99112E-04   -0.10575E-04  7085   0.361E-02    0.678E-02
RMM:  11    -0.105238885333E+03   -0.46420E-04   -0.66755E-05  6297   0.284E-02    0.413E-02
RMM:  12    -0.105238926163E+03   -0.40830E-04   -0.22995E-05  4400   0.191E-02    0.357E-02
RMM:  13    -0.105238978203E+03   -0.52041E-04   -0.17465E-05  4347   0.173E-02    0.333E-02
RMM:  14    -0.105238997636E+03   -0.19432E-04   -0.68713E-06  4107   0.102E-02    0.319E-02
RMM:  15    -0.105239044264E+03   -0.46629E-04   -0.19536E-05  4525   0.122E-02    0.275E-02
RMM:  16    -0.105239070332E+03   -0.26068E-04   -0.15862E-05  4377   0.108E-02    0.204E-02
RMM:  17    -0.105239085996E+03   -0.15664E-04   -0.14664E-05  4359   0.998E-03    0.114E-02
RMM:  18    -0.105239089719E+03   -0.37238E-05   -0.52509E-06  3979   0.754E-03
  53 F= -.10523909E+03 E0= -.10514938E+03  d E =-.366201E-01
 curvature: -50.98 expect dE=-0.195E+01 dE for cont linesearch -0.362E-02
 ZBRENT: increasing intervall
 opt :   3.8518  next Energy=  -105.219199 (dE=-0.167E-01)
 bond charge predicted
       N       E                     dE             d eps       ncg     rms          rms(c)
DAV:   1    -0.105033603630E+03    0.20548E+00   -0.12959E+02  7140   0.350E+01    0.260E+00
RMM:   2    -0.105599073783E+03   -0.56547E+00   -0.19732E+00  7171   0.516E+00    0.528E+00
RMM:   3    -0.105416665992E+03    0.18241E+00   -0.23628E-01  8086   0.163E+00    0.408E+00
RMM:   4    -0.105308974223E+03    0.10769E+00   -0.16802E-01  7163   0.149E+00    0.285E+00
RMM:   5    -0.105204067568E+03    0.10491E+00   -0.56958E-02  7154   0.908E-01    0.124E+00
RMM:   6    -0.105192097620E+03    0.11970E-01   -0.37266E-02  7152   0.741E-01    0.824E-01
RMM:   7    -0.105187153880E+03    0.49437E-02   -0.15108E-02  7154   0.453E-01    0.558E-01
RMM:   8    -0.105182772296E+03    0.43816E-02   -0.48634E-03  7162   0.269E-01    0.214E-01
RMM:   9    -0.105182819689E+03   -0.47393E-04   -0.10530E-03  7229   0.120E-01    0.165E-01
RMM:  10    -0.105182773831E+03    0.45858E-04   -0.34759E-04  7169   0.705E-02    0.111E-01
RMM:  11    -0.105182932537E+03   -0.15871E-03   -0.19430E-04  7151   0.506E-02    0.972E-02
RMM:  12    -0.105183077322E+03   -0.14479E-03   -0.14335E-04  7023   0.407E-02    0.585E-02
RMM:  13    -0.105183170534E+03   -0.93211E-04   -0.34068E-05  4827   0.200E-02    0.630E-02
RMM:  14    -0.105183251974E+03   -0.81440E-04   -0.27674E-05  4593   0.206E-02    0.603E-02
RMM:  15    -0.105183339105E+03   -0.87131E-04   -0.32298E-05  4853   0.183E-02    0.576E-02
RMM:  16    -0.105183390582E+03   -0.51477E-04   -0.31775E-05  4816   0.167E-02    0.419E-02
RMM:  17    -0.105183444962E+03   -0.54380E-04   -0.51125E-05  5395   0.177E-02    0.236E-02
RMM:  18    -0.105183458598E+03   -0.13636E-04   -0.14064E-05  4325   0.103E-02    0.169E-02
RMM:  19    -0.105183473001E+03   -0.14402E-04   -0.18589E-05  4452   0.106E-02    0.181E-02
RMM:  20    -0.105183470362E+03    0.26388E-05   -0.55793E-06  4071   0.785E-03
  54 F= -.10518347E+03 E0= -.10509274E+03  d E =0.189993E-01
 curvature: 280.36 expect dE= 0.366E+02 dE for cont linesearch  0.793E+00
 ZBRENT: bracketing found
 ZBRENT: interpolating
 opt :   1.8568  next Energy=  -105.240803 (dE=-0.383E-01)
 bond charge predicted
       N       E                     dE             d eps       ncg     rms          rms(c)
DAV:   1    -0.105109001354E+03    0.74472E-01   -0.94839E+01  7140   0.300E+01    0.211E+00
RMM:   2    -0.105661227858E+03   -0.55223E+00   -0.16165E+00  7153   0.453E+00    0.524E+00
RMM:   3    -0.105386271526E+03    0.27496E+00   -0.16690E-01  7905   0.127E+00    0.306E+00
RMM:   4    -0.105278828295E+03    0.10744E+00   -0.96949E-02  7154   0.111E+00    0.167E+00
RMM:   5    -0.105264753539E+03    0.14075E-01   -0.48286E-02  7159   0.751E-01    0.124E+00
RMM:   6    -0.105252829820E+03    0.11924E-01   -0.32262E-02  7152   0.643E-01    0.822E-01
RMM:   7    -0.105245239512E+03    0.75903E-02   -0.13447E-02  7151   0.430E-01    0.470E-01
RMM:   8    -0.105242491422E+03    0.27481E-02   -0.46733E-03  7155   0.267E-01    0.279E-01
RMM:   9    -0.105241174675E+03    0.13167E-02   -0.85053E-04  7151   0.126E-01    0.958E-02
RMM:  10    -0.105241142537E+03    0.32139E-04   -0.48921E-04  7168   0.803E-02    0.148E-01
RMM:  11    -0.105241042857E+03    0.99680E-04   -0.22463E-04  7183   0.528E-02    0.158E-01
RMM:  12    -0.105240802074E+03    0.24078E-03   -0.62848E-05  6235   0.277E-02    0.106E-01
RMM:  13    -0.105240679064E+03    0.12301E-03   -0.26099E-05  4423   0.207E-02    0.577E-02
RMM:  14    -0.105240691381E+03   -0.12317E-04   -0.15439E-05  4120   0.185E-02    0.469E-02
RMM:  15    -0.105240754930E+03   -0.63549E-04   -0.10028E-05  4099   0.152E-02    0.475E-02
RMM:  16    -0.105240999896E+03   -0.24497E-03   -0.37424E-05  4984   0.169E-02    0.409E-02
RMM:  17    -0.105241151153E+03   -0.15126E-03   -0.23800E-05  4591   0.139E-02    0.302E-02
RMM:  18    -0.105241259449E+03   -0.10830E-03   -0.18353E-05  4435   0.122E-02    0.205E-02
RMM:  19    -0.105241340485E+03   -0.81036E-04   -0.18446E-05  4492   0.117E-02    0.140E-02
RMM:  20    -0.105241387675E+03   -0.47190E-04   -0.20440E-05  4600   0.115E-02    0.647E-03
RMM:  21    -0.105241392834E+03   -0.51587E-05   -0.55446E-06  4016   0.878E-03
  55 F= -.10524139E+03 E0= -.10515154E+03  d E =-.389232E-01
 curvature:  -0.61 expect dE=-0.265E-01 dE for cont linesearch -0.337E-05
 trial: gam= 0.22282 g(F)=  0.437E-01 g(S)=  0.000E+00 ort = 0.304E-02 (trialstep = 0.680E+00)
 search vector abs. value=  0.127E+00
 bond charge predicted
       N       E                     dE             d eps       ncg     rms          rms(c)
DAV:   1    -0.105265439424E+03   -0.24052E-01   -0.22070E+00  7140   0.453E+00    0.416E-01
RMM:   2    -0.105331692914E+03   -0.66253E-01   -0.48481E-02  7334   0.620E-01    0.209E+00
RMM:   3    -0.105274591661E+03    0.57101E-01   -0.10579E-02  7321   0.325E-01    0.717E-01
RMM:   4    -0.105268366911E+03    0.62247E-02   -0.52528E-03  7235   0.241E-01    0.360E-01
RMM:   5    -0.105266580356E+03    0.17866E-02   -0.13286E-03  7173   0.124E-01    0.155E-01
RMM:   6    -0.105266444175E+03    0.13618E-03   -0.63999E-04  7153   0.913E-02    0.121E-01
RMM:   7    -0.105266278602E+03    0.16557E-03   -0.38181E-04  7158   0.703E-02    0.615E-02
RMM:   8    -0.105266264266E+03    0.14336E-04   -0.13848E-04  7134   0.439E-02    0.493E-02
RMM:   9    -0.105266229750E+03    0.34516E-04   -0.15473E-05  4103   0.165E-02    0.227E-02
RMM:  10    -0.105266231391E+03   -0.16416E-05   -0.66576E-06  3968   0.138E-02
  56 F= -.10526623E+03 E0= -.10517625E+03  d E =-.248386E-01
 trial-energy change:   -0.024839  1 .order   -0.024757   -0.030156   -0.019358
 step:   1.7694(harm=  1.8977)  dis= 0.03784  next Energy=  -105.282092 (dE=-0.407E-01)
 bond charge predicted
       N       E                     dE             d eps       ncg     rms          rms(c)
DAV:   1    -0.105279516227E+03   -0.13286E-01   -0.56931E+00  7210   0.728E+00    0.665E-01
RMM:   2    -0.105413062856E+03   -0.13355E+00   -0.11877E-01  7311   0.982E-01    0.295E+00
RMM:   3    -0.105309076369E+03    0.10399E+00   -0.25519E-02  7330   0.511E-01    0.133E+00
RMM:   4    -0.105287260223E+03    0.21816E-01   -0.13400E-02  7205   0.386E-01    0.598E-01
RMM:   5    -0.105282040621E+03    0.52196E-02   -0.34587E-03  7175   0.201E-01    0.230E-01
RMM:   6    -0.105281866659E+03    0.17396E-03   -0.16465E-03  7152   0.146E-01    0.186E-01
RMM:   7    -0.105281517121E+03    0.34954E-03   -0.10216E-03  7158   0.114E-01    0.103E-01
RMM:   8    -0.105281444346E+03    0.72775E-04   -0.36518E-04  7157   0.719E-02    0.701E-02
RMM:   9    -0.105281380452E+03    0.63894E-04   -0.46056E-05  5421   0.270E-02    0.355E-02
RMM:  10    -0.105281385964E+03   -0.55118E-05   -0.14784E-05  4071   0.189E-02
  57 F= -.10528139E+03 E0= -.10519120E+03  d E =-.399931E-01
 curvature:  -2.69 expect dE=-0.268E-01 dE for cont linesearch -0.113E-05
 trial: gam= 0.32715 g(F)=  0.996E-02 g(S)=  0.000E+00 ort =-0.231E-03 (trialstep = 0.897E+00)
 search vector abs. value=  0.234E-01
 bond charge predicted
       N       E                     dE             d eps       ncg     rms          rms(c)
DAV:   1    -0.105289047462E+03   -0.76670E-02   -0.59576E-01  8330   0.225E+00    0.121E-01
RMM:   2    -0.105290984094E+03   -0.19366E-02   -0.83848E-03  7176   0.320E-01    0.287E-01
RMM:   3    -0.105290318064E+03    0.66603E-03   -0.81195E-04  8224   0.104E-01    0.189E-01
RMM:   4    -0.105289908555E+03    0.40951E-03   -0.32533E-04  7143   0.658E-02    0.862E-02
RMM:   5    -0.105289816368E+03    0.92187E-04   -0.12076E-04  7113   0.400E-02    0.421E-02
RMM:   6    -0.105289867259E+03   -0.50891E-04   -0.10744E-04  7129   0.362E-02    0.622E-02
RMM:   7    -0.105289820690E+03    0.46569E-04   -0.42195E-05  5346   0.226E-02    0.293E-02
RMM:   8    -0.105289811982E+03    0.87085E-05   -0.14275E-05  3978   0.189E-02
  58 F= -.10528981E+03 E0= -.10519968E+03  d E =-.842602E-02
 ZBRENT: can't locate minimum, use default step
 trial-energy change:   -0.008426  1 .order   -0.008364   -0.008870   -0.007858
 step:   3.5899(harm=  7.8665)  dis= 0.03173  next Energy=  -105.320260 (dE=-0.389E-01)
 bond charge predicted
       N       E                     dE             d eps       ncg     rms          rms(c)
DAV:   1    -0.105301372091E+03   -0.11551E-01   -0.53510E+00  7140   0.675E+00    0.365E-01
RMM:   2    -0.105309791629E+03   -0.84195E-02   -0.81247E-02  7157   0.105E+00    0.328E-01
RMM:   3    -0.105329855921E+03   -0.20064E-01   -0.93870E-03  8690   0.319E-01    0.119E+00
RMM:   4    -0.105310144293E+03    0.19712E-01   -0.36782E-03  7335   0.193E-01    0.308E-01
RMM:   5    -0.105308719411E+03    0.14249E-02   -0.12787E-03  7151   0.128E-01    0.122E-01
RMM:   6    -0.105308962273E+03   -0.24286E-03   -0.10360E-03  7170   0.109E-01    0.161E-01
RMM:   7    -0.105308712402E+03    0.24987E-03   -0.54164E-04  7191   0.754E-02    0.947E-02
RMM:   8    -0.105308588212E+03    0.12419E-03   -0.15456E-04  7160   0.437E-02    0.405E-02
RMM:   9    -0.105308565337E+03    0.22874E-04   -0.31258E-05  4479   0.208E-02    0.253E-02
RMM:  10    -0.105308560559E+03    0.47785E-05   -0.19183E-05  3965   0.229E-02
  59 F= -.10530856E+03 E0= -.10521850E+03  d E =-.271746E-01
 curvature:  -5.82 expect dE=-0.223E-01 dE for cont linesearch -0.697E-02
 ZBRENT: increasing intervall
 opt :   8.9749  next Energy=  -105.318495 (dE=-0.371E-01)
 bond charge predicted
       N       E                     dE             d eps       ncg     rms          rms(c)
DAV:   1    -0.105288236135E+03    0.20329E-01   -0.21381E+01  7140   0.135E+01    0.748E-01
RMM:   2    -0.105329928634E+03   -0.41692E-01   -0.35127E-01  7158   0.241E+00    0.937E-01
RMM:   3    -0.105383922518E+03   -0.53994E-01   -0.45677E-02  9198   0.625E-01    0.204E+00
RMM:   4    -0.105325082532E+03    0.58840E-01   -0.15515E-02  7229   0.426E-01    0.599E-01
RMM:   5    -0.105319862497E+03    0.52200E-02   -0.48202E-03  7159   0.244E-01    0.275E-01
RMM:   6    -0.105320473238E+03   -0.61074E-03   -0.44751E-03  7169   0.223E-01    0.308E-01
RMM:   7    -0.105319777207E+03    0.69603E-03   -0.27417E-03  7198   0.169E-01    0.204E-01
RMM:   8    -0.105319292180E+03    0.48503E-03   -0.70971E-04  7172   0.950E-02    0.114E-01
RMM:   9    -0.105319102250E+03    0.18993E-03   -0.18362E-04  7159   0.444E-02    0.573E-02
RMM:  10    -0.105319060612E+03    0.41638E-04   -0.79323E-05  7033   0.290E-02    0.353E-02
RMM:  11    -0.105319050865E+03    0.97468E-05   -0.44023E-05  5423   0.212E-02
  60 F= -.10531905E+03 E0= -.10522895E+03  d E =-.376649E-01
 curvature:  -8.29 expect dE=-0.738E-01 dE for cont linesearch -0.921E-03
 ZBRENT: bracketing found
 ZBRENT: interpolating
 opt :   7.7180  next Energy=  -105.320065 (dE=-0.387E-01)
 bond charge predicted
       N       E                     dE             d eps       ncg     rms          rms(c)
DAV:   1    -0.105318495495E+03    0.56512E-03   -0.11629E+00  7140   0.315E+00    0.169E-01
RMM:   2    -0.105320401909E+03   -0.19064E-02   -0.17199E-02  7158   0.462E-01    0.177E-01
RMM:   3    -0.105324189162E+03   -0.37873E-02   -0.18908E-03  7944   0.162E-01    0.526E-01
RMM:   4    -0.105320314784E+03    0.38744E-02   -0.75275E-04  7282   0.909E-02    0.130E-01
RMM:   5    -0.105320060435E+03    0.25435E-03   -0.25813E-04  7146   0.576E-02    0.590E-02
RMM:   6    -0.105320099987E+03   -0.39552E-04   -0.21840E-04  7152   0.507E-02    0.672E-02
RMM:   7    -0.105320045818E+03    0.54169E-04   -0.10944E-04  7090   0.354E-02    0.298E-02
RMM:   8    -0.105320035731E+03    0.10087E-04   -0.17879E-05  4042   0.166E-02    0.188E-02
RMM:   9    -0.105320031345E+03    0.43858E-05   -0.86124E-06  3853   0.171E-02
  61 F= -.10532003E+03 E0= -.10522997E+03  d E =-.386454E-01
 curvature:  -9.13 expect dE=-0.568E-01 dE for cont linesearch -0.519E-05
 trial: gam= 0.71461 g(F)=  0.622E-02 g(S)=  0.000E+00 ort = 0.115E-03 (trialstep = 0.226E+01)
 search vector abs. value=  0.184E-01
 bond charge predicted
       N       E                     dE             d eps       ncg     rms          rms(c)
DAV:   1    -0.105329357242E+03   -0.93215E-02   -0.28906E+00  7140   0.518E+00    0.312E-01
RMM:   2    -0.105340496983E+03   -0.11140E-01   -0.44669E-02  7157   0.718E-01    0.707E-01
RMM:   3    -0.105338975844E+03    0.15211E-02   -0.47405E-03  7494   0.260E-01    0.632E-01
RMM:   4    -0.105334309287E+03    0.46666E-02   -0.24288E-03  7162   0.174E-01    0.293E-01
RMM:   5    -0.105333322904E+03    0.98638E-03   -0.78765E-04  7149   0.102E-01    0.151E-01
RMM:   6    -0.105333124987E+03    0.19792E-03   -0.52724E-04  7146   0.843E-02    0.100E-01
RMM:   7    -0.105333073581E+03    0.51406E-04   -0.37756E-04  7157   0.674E-02    0.741E-02
RMM:   8    -0.105333003661E+03    0.69920E-04   -0.12565E-04  7132   0.399E-02    0.328E-02
RMM:   9    -0.105332986237E+03    0.17424E-04   -0.16808E-05  4044   0.159E-02    0.157E-02
RMM:  10    -0.105332984467E+03    0.17696E-05   -0.72056E-06  3841   0.157E-02
  62 F= -.10533298E+03 E0= -.10524302E+03  d E =-.129531E-01
 ZBRENT: can't locate minimum, use default step
 trial-energy change:   -0.012953  1 .order   -0.013066   -0.014251   -0.011882
 step:   9.0463(harm= 13.6040)  dis= 0.06391  next Energy=  -105.362893 (dE=-0.429E-01)
 bond charge predicted
       N       E                     dE             d eps       ncg     rms          rms(c)
DAV:   1    -0.105323547620E+03    0.94386E-02   -0.26043E+01  7140   0.156E+01    0.934E-01
RMM:   2    -0.105415232504E+03   -0.91685E-01   -0.41356E-01  7157   0.242E+00    0.194E+00
RMM:   3    -0.105412751361E+03    0.24811E-02   -0.49532E-02  8328   0.759E-01    0.192E+00
RMM:   4    -0.105370075414E+03    0.42676E-01   -0.22122E-02  7164   0.533E-01    0.876E-01
RMM:   5    -0.105361639515E+03    0.84359E-02   -0.69485E-03  7151   0.308E-01    0.485E-01
RMM:   6    -0.105359848479E+03    0.17910E-02   -0.46516E-03  7149   0.251E-01    0.327E-01
RMM:   7    -0.105359391594E+03    0.45689E-03   -0.37987E-03  7167   0.211E-01    0.241E-01
RMM:   8    -0.105358608089E+03    0.78350E-03   -0.12440E-03  7160   0.123E-01    0.100E-01
RMM:   9    -0.105358474387E+03    0.13370E-03   -0.21312E-04  7287   0.499E-02    0.577E-02
RMM:  10    -0.105358451463E+03    0.22924E-04   -0.55929E-05  6170   0.259E-02    0.408E-02
RMM:  11    -0.105358439440E+03    0.12023E-04   -0.31868E-05  4393   0.236E-02    0.198E-02
[...]
RMM:   9    -0.105462014912E+03    0.20994E-04   -0.20049E-05  4163   0.181E-02    0.267E-02
RMM:  10    -0.105462013984E+03    0.92767E-06   -0.65884E-06  3904   0.139E-02
  83 F= -.10546201E+03 E0= -.10537086E+03  d E =-.761074E-02
 trial-energy change:   -0.007611  1 .order   -0.007442   -0.012418   -0.002466
 step:   1.7707(harm=  1.8105)  dis= 0.01797  next Energy=  -105.462288 (dE=-0.788E-02)
 bond charge predicted
       N       E                     dE             d eps       ncg     rms          rms(c)
DAV:   1    -0.105462229617E+03   -0.21471E-03   -0.84771E-02  8995   0.920E-01    0.789E-02
RMM:   2    -0.105462424968E+03   -0.19535E-03   -0.18531E-03  7217   0.122E-01    0.908E-02
RMM:   3    -0.105462434330E+03   -0.93620E-05   -0.23152E-04  7170   0.568E-02    0.944E-02
RMM:   4    -0.105462481985E+03   -0.47655E-04   -0.65423E-05  6087   0.236E-02    0.110E-01
RMM:   5    -0.105462304137E+03    0.17785E-03   -0.33051E-05  4861   0.235E-02    0.270E-02
RMM:   6    -0.105462300958E+03    0.31788E-05   -0.16128E-05  4027   0.185E-02
  84 F= -.10546230E+03 E0= -.10537117E+03  d E =-.789772E-02
 curvature:  -1.69 expect dE=-0.457E-02 dE for cont linesearch -0.381E-06
 trial: gam= 0.44887 g(F)=  0.270E-02 g(S)=  0.000E+00 ort = 0.604E-04 (trialstep = 0.151E+01)
 search vector abs. value=  0.601E-02
 bond charge predicted
       N       E                     dE             d eps       ncg     rms          rms(c)
DAV:   1    -0.105464943937E+03   -0.26398E-02   -0.73569E-01  7140   0.266E+00    0.122E-01
RMM:   2    -0.105466695394E+03   -0.17515E-02   -0.12264E-02  7158   0.371E-01    0.209E-01
RMM:   3    -0.105467057162E+03   -0.36177E-03   -0.10218E-03  7964   0.127E-01    0.253E-01
RMM:   4    -0.105466191642E+03    0.86552E-03   -0.30223E-04  7205   0.617E-02    0.911E-02
RMM:   5    -0.105466080377E+03    0.11127E-03   -0.79919E-05  6925   0.320E-02    0.468E-02
RMM:   6    -0.105466081672E+03   -0.12950E-05   -0.67259E-05  6580   0.297E-02
  85 F= -.10546608E+03 E0= -.10537495E+03  d E =-.378071E-02
 ZBRENT: can't locate minimum, use default step
 trial-energy change:   -0.003781  1 .order   -0.003806   -0.004136   -0.003476
 step:   6.0595(harm=  9.4971)  dis= 0.02509  next Energy=  -105.475266 (dE=-0.130E-01)
 bond charge predicted
       N       E                     dE             d eps       ncg     rms          rms(c)
DAV:   1    -0.105463166095E+03    0.29143E-02   -0.66226E+00  7140   0.798E+00    0.366E-01
RMM:   2    -0.105476559439E+03   -0.13393E-01   -0.11082E-01  7157   0.114E+00    0.488E-01
RMM:   3    -0.105486781987E+03   -0.10223E-01   -0.97909E-03  8338   0.364E-01    0.925E-01
RMM:   4    -0.105474428999E+03    0.12353E-01   -0.30724E-03  7232   0.193E-01    0.268E-01
RMM:   5    -0.105473416754E+03    0.10122E-02   -0.83776E-04  7174   0.105E-01    0.124E-01
RMM:   6    -0.105473646627E+03   -0.22987E-03   -0.70949E-04  7203   0.905E-02    0.163E-01
RMM:   7    -0.105473365415E+03    0.28121E-03   -0.65045E-04  7183   0.815E-02    0.833E-02
RMM:   8    -0.105473265984E+03    0.99432E-04   -0.18213E-04  7144   0.477E-02    0.331E-02
RMM:   9    -0.105473252587E+03    0.13397E-04   -0.26267E-05  4214   0.184E-02    0.267E-02
RMM:  10    -0.105473244411E+03    0.81763E-05   -0.14789E-05  3842   0.219E-02
  86 F= -.10547324E+03 E0= -.10538224E+03  d E =-.109435E-01
 curvature:  -8.52 expect dE=-0.122E-01 dE for cont linesearch -0.976E-03
 ZBRENT: increasing intervall
 opt :  15.1489  next Energy=  -105.467477 (dE=-0.518E-02)
 bond charge predicted
       N       E                     dE             d eps       ncg     rms          rms(c)
DAV:   1    -0.105424490507E+03    0.48762E-01   -0.26529E+01  7140   0.160E+01    0.743E-01
RMM:   2    -0.105490792252E+03   -0.66302E-01   -0.47432E-01  7158   0.251E+00    0.127E+00
RMM:   3    -0.105507636064E+03   -0.16844E-01   -0.45329E-02  9001   0.701E-01    0.157E+00
RMM:   4    -0.105471652623E+03    0.35983E-01   -0.11371E-02  7214   0.377E-01    0.502E-01
RMM:   5    -0.105468475593E+03    0.31770E-02   -0.31117E-03  7191   0.196E-01    0.294E-01
RMM:   6    -0.105468478985E+03   -0.33925E-05   -0.26082E-03  7167   0.176E-01    0.280E-01
RMM:   7    -0.105468062285E+03    0.41670E-03   -0.30289E-03  7171   0.182E-01    0.208E-01
RMM:   8    -0.105467526246E+03    0.53604E-03   -0.99362E-04  7155   0.111E-01    0.839E-02
RMM:   9    -0.105467424974E+03    0.10127E-03   -0.14093E-04  7187   0.405E-02    0.506E-02
RMM:  10    -0.105467390205E+03    0.34769E-04   -0.39482E-05  5130   0.228E-02    0.294E-02
RMM:  11    -0.105467383258E+03    0.69471E-05   -0.32890E-05  4318   0.238E-02
  87 F= -.10546738E+03 E0= -.10537648E+03  d E =-.508230E-02
 curvature:  50.34 expect dE= 0.470E+00 dE for cont linesearch  0.384E-01
 ZBRENT: bracketing found
 ZBRENT: interpolating
 opt :   8.5983  next Energy=  -105.474298 (dE=-0.120E-01)
 bond charge predicted
       N       E                     dE             d eps       ncg     rms          rms(c)
DAV:   1    -0.105452517129E+03    0.14873E-01   -0.13780E+01  7140   0.115E+01    0.527E-01
RMM:   2    -0.105478547297E+03   -0.26030E-01   -0.23703E-01  7158   0.170E+00    0.561E-01
RMM:   3    -0.105511466953E+03   -0.32920E-01   -0.23153E-02  8241   0.566E-01    0.155E+00
RMM:   4    -0.105477303941E+03    0.34163E-01   -0.66209E-03  7303   0.272E-01    0.417E-01
RMM:   5    -0.105474758769E+03    0.25452E-02   -0.18039E-03  7198   0.147E-01    0.198E-01
RMM:   6    -0.105474814106E+03   -0.55337E-04   -0.12424E-03  7161   0.126E-01    0.199E-01
RMM:   7    -0.105474557991E+03    0.25611E-03   -0.15990E-03  7172   0.135E-01    0.135E-01
RMM:   8    -0.105474338190E+03    0.21980E-03   -0.53440E-04  7181   0.802E-02    0.536E-02
RMM:   9    -0.105474297923E+03    0.40266E-04   -0.76295E-05  7062   0.298E-02    0.359E-02
RMM:  10    -0.105474277743E+03    0.20180E-04   -0.20170E-05  3995   0.175E-02    0.217E-02
RMM:  11    -0.105474270704E+03    0.70396E-05   -0.18347E-05  3867   0.195E-02
  88 F= -.10547427E+03 E0= -.10538332E+03  d E =-.119697E-01
 curvature:  -1.38 expect dE=-0.325E-02 dE for cont linesearch -0.144E-06
 trial: gam= 0.84961 g(F)=  0.235E-02 g(S)=  0.000E+00 ort = 0.251E-04 (trialstep = 0.262E+01)
 search vector abs. value=  0.674E-02
 bond charge predicted
       N       E                     dE             d eps       ncg     rms          rms(c)
DAV:   1    -0.105475906764E+03   -0.16290E-02   -0.24018E+00  7140   0.491E+00    0.235E-01
RMM:   2    -0.105479780514E+03   -0.38738E-02   -0.39592E-02  7161   0.631E-01    0.165E-01
RMM:   3    -0.105490147562E+03   -0.10367E-01   -0.36336E-03  7552   0.227E-01    0.823E-01
RMM:   4    -0.105479902350E+03    0.10245E-01   -0.12757E-03  7362   0.107E-01    0.147E-01
RMM:   5    -0.105479593605E+03    0.30875E-03   -0.35530E-04  7153   0.708E-02    0.805E-02
RMM:   6    -0.105479622264E+03   -0.28660E-04   -0.24481E-04  7180   0.534E-02    0.838E-02
RMM:   7    -0.105479567557E+03    0.54707E-04   -0.18219E-04  7131   0.452E-02    0.620E-02
RMM:   8    -0.105479508779E+03    0.58779E-04   -0.63277E-05  6489   0.283E-02    0.176E-02
RMM:   9    -0.105479505793E+03    0.29856E-05   -0.92831E-06  3857   0.133E-02
  89 F= -.10547951E+03 E0= -.10538853E+03  d E =-.523509E-02
 trial-energy change:   -0.005235  1 .order   -0.005292   -0.006213   -0.004370
 step:   8.8247(harm=  8.8247)  dis= 0.03298  next Energy=  -105.484745 (dE=-0.105E-01)
 bond charge predicted
       N       E                     dE             d eps       ncg     rms          rms(c)
DAV:   1    -0.105463077690E+03    0.16431E-01   -0.13507E+01  7140   0.116E+01    0.584E-01
RMM:   2    -0.105484454584E+03   -0.21377E-01   -0.23267E-01  7161   0.155E+00    0.297E-01
RMM:   3    -0.105491330054E+03   -0.68755E-02   -0.14468E-02  7619   0.483E-01    0.687E-01
RMM:   4    -0.105488520661E+03    0.28094E-02   -0.31266E-03  7942   0.161E-01    0.552E-01
RMM:   5    -0.105484415244E+03    0.41054E-02   -0.20753E-03  7157   0.172E-01    0.195E-01
RMM:   6    -0.105484277235E+03    0.13801E-03   -0.13165E-03  7176   0.125E-01    0.155E-01
RMM:   7    -0.105484189770E+03    0.87466E-04   -0.10486E-03  7156   0.108E-01    0.122E-01
RMM:   8    -0.105483987139E+03    0.20263E-03   -0.24509E-04  7254   0.524E-02    0.531E-02
RMM:   9    -0.105483953076E+03    0.34063E-04   -0.46582E-05  5550   0.242E-02    0.333E-02
RMM:  10    -0.105483948979E+03    0.40976E-05   -0.15967E-05  3974   0.197E-02
  90 F= -.10548395E+03 E0= -.10539298E+03  d E =-.967827E-02
 curvature: -12.52 expect dE=-0.138E+00 dE for cont linesearch -0.313E-03
 trial: gam= 4.72089 g(F)=  0.110E-01 g(S)=  0.000E+00 ort =-0.410E-03 (trialstep = 0.165E+00)
 search vector abs. value=  0.157E+00
 bond charge predicted
       N       E                     dE             d eps       ncg     rms          rms(c)
DAV:   1    -0.105485048388E+03   -0.10953E-02   -0.23089E-01  7630   0.152E+00    0.812E-02
RMM:   2    -0.105485517127E+03   -0.46874E-03   -0.39032E-03  7159   0.199E-01    0.981E-02
RMM:   3    -0.105486375436E+03   -0.85831E-03   -0.38552E-04  7605   0.689E-02    0.250E-01
RMM:   4    -0.105485496340E+03    0.87910E-03   -0.17877E-04  7308   0.404E-02    0.726E-02
RMM:   5    -0.105485420895E+03    0.75445E-04   -0.49846E-05  5580   0.254E-02    0.344E-02
RMM:   6    -0.105485415079E+03    0.58158E-05   -0.19855E-05  4086   0.207E-02
  91 F= -.10548542E+03 E0= -.10539445E+03  d E =-.146610E-02
 ZBRENT: can't locate minimum, use default step
 trial-energy change:   -0.001466  1 .order   -0.001458   -0.001501   -0.001414
 step:   0.6611(harm=  2.8280)  dis= 0.01535  next Energy=  -105.496795 (dE=-0.128E-01)
 bond charge predicted
       N       E                     dE             d eps       ncg     rms          rms(c)
DAV:   1    -0.105486312477E+03   -0.89158E-03   -0.20709E+00  7140   0.456E+00    0.229E-01
RMM:   2    -0.105491190948E+03   -0.48785E-02   -0.33532E-02  7162   0.577E-01    0.352E-01
RMM:   3    -0.105493592452E+03   -0.24015E-02   -0.28602E-03  7561   0.203E-01    0.533E-01
RMM:   4    -0.105490039660E+03    0.35528E-02   -0.13044E-03  7261   0.124E-01    0.214E-01
RMM:   5    -0.105489397523E+03    0.64214E-03   -0.36688E-04  7161   0.700E-02    0.870E-02
RMM:   6    -0.105489367462E+03    0.30061E-04   -0.19133E-04  7141   0.498E-02    0.733E-02
RMM:   7    -0.105489345203E+03    0.22259E-04   -0.19012E-04  7141   0.464E-02    0.561E-02
RMM:   8    -0.105489312830E+03    0.32373E-04   -0.78638E-05  6675   0.294E-02    0.222E-02
RMM:   9    -0.105489311825E+03    0.10053E-05   -0.95866E-06  3875   0.131E-02
  92 F= -.10548931E+03 E0= -.10539833E+03  d E =-.536285E-02
 curvature:  -8.27 expect dE=-0.759E-01 dE for cont linesearch -0.245E-02
 ZBRENT: increasing intervall
 opt :   1.6527  next Energy=  -105.494379 (dE=-0.104E-01)
 bond charge predicted
       N       E                     dE             d eps       ncg     rms          rms(c)
DAV:   1    -0.105481865260E+03    0.74476E-02   -0.82952E+00  7140   0.912E+00    0.455E-01
RMM:   2    -0.105500783388E+03   -0.18918E-01   -0.13601E-01  7164   0.117E+00    0.674E-01
RMM:   3    -0.105511440280E+03   -0.10657E-01   -0.11695E-02  7632   0.405E-01    0.107E+00
RMM:   4    -0.105497188978E+03    0.14251E-01   -0.49418E-03  7341   0.232E-01    0.432E-01
RMM:   5    -0.105494435252E+03    0.27537E-02   -0.14148E-03  7161   0.134E-01    0.159E-01
RMM:   6    -0.105494323320E+03    0.11193E-03   -0.69979E-04  7165   0.893E-02    0.125E-01
RMM:   7    -0.105494381712E+03   -0.58392E-04   -0.78149E-04  7159   0.945E-02    0.119E-01
RMM:   8    -0.105494191310E+03    0.19040E-03   -0.28299E-04  7169   0.573E-02    0.378E-02
RMM:   9    -0.105494182019E+03    0.92909E-05   -0.33981E-05  4780   0.202E-02
  93 F= -.10549418E+03 E0= -.10540319E+03  d E =-.102330E-01
 curvature: -17.07 expect dE=-0.142E+00 dE for cont linesearch -0.125E-02
 ZBRENT: increasing intervall
 opt :   3.6360  next Energy=  -105.494090 (dE=-0.101E-01)
 bond charge predicted
       N       E                     dE             d eps       ncg     rms          rms(c)
DAV:   1    -0.105440831726E+03    0.53360E-01   -0.33122E+01  7140   0.182E+01    0.916E-01
RMM:   2    -0.105510536722E+03   -0.69705E-01   -0.57182E-01  7166   0.246E+00    0.111E+00
RMM:   3    -0.105581352040E+03   -0.70815E-01   -0.52897E-02  7892   0.821E-01    0.238E+00
RMM:   4    -0.105506047828E+03    0.75304E-01   -0.19912E-02  7347   0.463E-01    0.872E-01
RMM:   5    -0.105494266898E+03    0.11781E-01   -0.55077E-03  7162   0.262E-01    0.306E-01
RMM:   6    -0.105494081269E+03    0.18563E-03   -0.31069E-03  7179   0.187E-01    0.261E-01
RMM:   7    -0.105494221206E+03   -0.13994E-03   -0.34507E-03  7162   0.197E-01    0.227E-01
RMM:   8    -0.105493553430E+03    0.66778E-03   -0.10098E-03  7192   0.110E-01    0.899E-02
RMM:   9    -0.105493497320E+03    0.56111E-04   -0.17108E-04  7559   0.404E-02    0.619E-02
RMM:  10    -0.105493475597E+03    0.21723E-04   -0.35203E-05  4852   0.221E-02    0.451E-02
RMM:  11    -0.105493483593E+03   -0.79959E-05   -0.21367E-05  4103   0.213E-02
  94 F= -.10549348E+03 E0= -.10540243E+03  d E =-.953461E-02
 curvature:   1.25 expect dE= 0.153E-01 dE for cont linesearch  0.154E-03
 trial: gam= 0.41216 g(F)=  0.122E-01 g(S)=  0.000E+00 ort =-0.439E-02 (trialstep = 0.859E+00)
 search vector abs. value=  0.353E-01
 bond charge predicted
       N       E                     dE             d eps       ncg     rms          rms(c)
DAV:   1    -0.105498995105E+03   -0.55195E-02   -0.12928E+00  7210   0.363E+00    0.231E-01
RMM:   2    -0.105501536906E+03   -0.25418E-02   -0.23803E-02  7164   0.460E-01    0.229E-01
RMM:   3    -0.105508762978E+03   -0.72261E-02   -0.28062E-03  7454   0.185E-01    0.711E-01
RMM:   4    -0.105501332167E+03    0.74308E-02   -0.10475E-03  7364   0.972E-02    0.192E-01
RMM:   5    -0.105500892888E+03    0.43928E-03   -0.40337E-04  7160   0.749E-02    0.952E-02
RMM:   6    -0.105500804659E+03    0.88229E-04   -0.14550E-04  7098   0.409E-02    0.520E-02
RMM:   7    -0.105500841095E+03   -0.36436E-04   -0.13312E-04  7135   0.407E-02    0.575E-02
RMM:   8    -0.105500827842E+03    0.13253E-04   -0.67840E-05  6604   0.296E-02    0.325E-02
RMM:   9    -0.105500818202E+03    0.96399E-05   -0.11208E-05  4019   0.145E-02
  95 F= -.10550082E+03 E0= -.10540983E+03  d E =-.733461E-02
 trial-energy change:   -0.007335  1 .order   -0.007206   -0.008907   -0.005505
 step:   1.8027(harm=  2.2502)  dis= 0.02630  next Energy=  -105.504009 (dE=-0.105E-01)
 bond charge predicted
       N       E                     dE             d eps       ncg     rms          rms(c)
DAV:   1    -0.105502856156E+03   -0.20283E-02   -0.15564E+00  7140   0.397E+00    0.251E-01
RMM:   2    -0.105506428634E+03   -0.35725E-02   -0.27998E-02  7162   0.495E-01    0.311E-01
RMM:   3    -0.105516416441E+03   -0.99878E-02   -0.34762E-03  7464   0.206E-01    0.860E-01
RMM:   4    -0.105505490032E+03    0.10926E-01   -0.15429E-03  7333   0.121E-01    0.191E-01
RMM:   5    -0.105505022050E+03    0.46798E-03   -0.46535E-04  7163   0.800E-02    0.105E-01
RMM:   6    -0.105504924373E+03    0.97677E-04   -0.17610E-04  7142   0.446E-02    0.564E-02
RMM:   7    -0.105504949227E+03   -0.24855E-04   -0.15586E-04  7140   0.440E-02    0.588E-02
RMM:   8    -0.105504920589E+03    0.28639E-04   -0.72383E-05  6758   0.304E-02    0.289E-02
RMM:   9    -0.105504907679E+03    0.12910E-04   -0.11748E-05  3966   0.147E-02    0.152E-02
RMM:  10    -0.105504906405E+03    0.12738E-05   -0.45211E-06  3845   0.107E-02
  96 F= -.10550491E+03 E0= -.10541399E+03  d E =-.114228E-01
 curvature:  -3.43 expect dE=-0.222E-01 dE for cont linesearch -0.508E-03
 ZBRENT: increasing intervall
 opt :   3.6893  next Energy=  -105.501445 (dE=-0.796E-02)
 bond charge predicted
       N       E                     dE             d eps       ncg     rms          rms(c)
DAV:   1    -0.105493051065E+03    0.11857E-01   -0.62373E+00  7140   0.794E+00    0.489E-01
RMM:   2    -0.105514968628E+03   -0.21918E-01   -0.11022E-01  7162   0.990E-01    0.934E-01
RMM:   3    -0.105527348103E+03   -0.12379E-01   -0.12009E-02  7420   0.396E-01    0.131E+00
RMM:   4    -0.105503529063E+03    0.23819E-01   -0.56899E-03  7325   0.235E-01    0.391E-01
RMM:   5    -0.105501597168E+03    0.19319E-02   -0.16249E-03  7161   0.148E-01    0.212E-01
RMM:   6    -0.105501177793E+03    0.41938E-03   -0.69254E-04  7158   0.868E-02    0.114E-01
RMM:   7    -0.105501315325E+03   -0.13753E-03   -0.68780E-04  7160   0.904E-02    0.123E-01
RMM:   8    -0.105501149195E+03    0.16613E-03   -0.29174E-04  7169   0.605E-02    0.551E-02
RMM:   9    -0.105501101603E+03    0.47592E-04   -0.48445E-05  5525   0.261E-02    0.281E-02
RMM:  10    -0.105501096512E+03    0.50904E-05   -0.15817E-05  3991   0.176E-02
  97 F= -.10550110E+03 E0= -.10541028E+03  d E =-.761292E-02
 curvature:  23.37 expect dE= 0.652E+00 dE for cont linesearch  0.272E-01
 ZBRENT: bracketing found
 ZBRENT: interpolating
 opt :   2.2989  next Energy=  -105.505473 (dE=-0.120E-01)
 bond charge predicted
       N       E                     dE             d eps       ncg     rms          rms(c)
DAV:   1    -0.105501263477E+03   -0.16187E-03   -0.33825E+00  7140   0.583E+00    0.377E-01
RMM:   2    -0.105517772006E+03   -0.16509E-01   -0.64319E-02  7167   0.745E-01    0.843E-01
RMM:   3    -0.105518827882E+03   -0.10559E-02   -0.70118E-03  7433   0.293E-01    0.926E-01
RMM:   4    -0.105506597866E+03    0.12230E-01   -0.32802E-03  7283   0.182E-01    0.251E-01
RMM:   5    -0.105505843043E+03    0.75482E-03   -0.89081E-04  7160   0.109E-01    0.150E-01
RMM:   6    -0.105505644638E+03    0.19841E-03   -0.35928E-04  7143   0.659E-02    0.906E-02
RMM:   7    -0.105505645621E+03   -0.98358E-06   -0.32201E-04  7159   0.647E-02    0.796E-02
RMM:   8    -0.105505589501E+03    0.56121E-04   -0.16311E-04  7141   0.462E-02    0.364E-02
RMM:   9    -0.105505562097E+03    0.27404E-04   -0.23838E-05  4304   0.192E-02    0.107E-02
RMM:  10    -0.105505562103E+03   -0.59845E-08   -0.69682E-06  3790   0.140E-02
  98 F= -.10550556E+03 E0= -.10541468E+03  d E =-.120785E-01
 curvature:  -0.49 expect dE=-0.436E-02 dE for cont linesearch -0.121E-05
 trial: gam= 0.63124 g(F)=  0.895E-02 g(S)=  0.000E+00 ort = 0.295E-03 (trialstep = 0.115E+01)
 search vector abs. value=  0.234E-01
 bond charge predicted
       N       E                     dE             d eps       ncg     rms          rms(c)
DAV:   1    -0.105512039682E+03   -0.64776E-02   -0.16713E+00  7140   0.404E+00    0.205E-01
RMM:   2    -0.105522041751E+03   -0.10002E-01   -0.28466E-02  7171   0.533E-01    0.688E-01
RMM:   3    -0.105515557804E+03    0.64839E-02   -0.25006E-03  7562   0.184E-01    0.295E-01
RMM:   4    -0.105514729558E+03    0.82825E-03   -0.11315E-03  7233   0.115E-01    0.164E-01
RMM:   5    -0.105514451927E+03    0.27763E-03   -0.36765E-04  7153   0.674E-02    0.966E-02
RMM:   6    -0.105514372456E+03    0.79471E-04   -0.18173E-04  7140   0.475E-02    0.685E-02
RMM:   7    -0.105514373108E+03   -0.65161E-06   -0.17074E-04  7139   0.470E-02    0.624E-02
RMM:   8    -0.105514318081E+03    0.55027E-04   -0.74754E-05  6817   0.317E-02    0.154E-02
RMM:   9    -0.105514316949E+03    0.11321E-05   -0.95587E-06  3876   0.129E-02
  99 F= -.10551432E+03 E0= -.10542352E+03  d E =-.875485E-02
 trial-energy change:   -0.008755  1 .order   -0.008728   -0.010481   -0.006976
 step:   3.4307(harm=  3.4307)  dis= 0.02980  next Energy=  -105.521232 (dE=-0.157E-01)
 bond charge predicted
       N       E                     dE             d eps       ncg     rms          rms(c)
DAV:   1    -0.105511901879E+03    0.24162E-02   -0.66153E+00  7140   0.803E+00    0.422E-01
RMM:   2    -0.105558787828E+03   -0.46886E-01   -0.11807E-01  7181   0.110E+00    0.151E+00
RMM:   3    -0.105526482955E+03    0.32305E-01   -0.10864E-02  7624   0.370E-01    0.620E-01
