 vasp.5.4.1 05Feb16 (build Nov 22 2018 20:17:51) complex                        
  
 POSCAR found type information on POSCAR  Pd
 03/POSCAR found :  1 types and      33 ions
 scaLAPACK will be used

 ----------------------------------------------------------------------------- 
|                                                                             |
|           W    W    AA    RRRRR   N    N  II  N    N   GGGG   !!!           |
|           W    W   A  A   R    R  NN   N  II  NN   N  G    G  !!!           |
|           W    W  A    A  R    R  N N  N  II  N N  N  G       !!!           |
|           W WW W  AAAAAA  RRRRR   N  N N  II  N  N N  G  GGG   !            |
|           WW  WW  A    A  R   R   N   NN  II  N   NN  G    G                |
|           W    W  A    A  R    R  N    N  II  N    N   GGGG   !!!           |
|                                                                             |
|      For optimal performance we recommend to set                            |
|        NCORE= 4 - approx SQRT( number of cores)                             |
|      NCORE specifies how many cores store one orbital (NPAR=cpu/NCORE).     |
|      This setting can  greatly improve the performance of VASP for DFT.     |
|      The default, NPAR=number of cores might be grossly inefficient         |
|      on modern multi-core architectures or massively parallel machines.     |
|      Do your own testing !!!!                                               |
|      Unfortunately you need to use the default for GW and RPA calculations. |
|      (for HF NCORE is supported but not extensively tested yet)             |
|                                                                             |
 ----------------------------------------------------------------------------- 

 LDA part: xc-table for Ceperly-Alder, standard interpolation
 POSCAR found type information on POSCAR  Pd
 00/POSCAR found :  1 types and      33 ions
 POSCAR found type information on POSCAR  Pd
 06/POSCAR found :  1 types and      33 ions
 Jacobian:    20.4934437754924     

 ----------------------------------------------------------------------------- 
|                                                                             |
|           W    W    AA    RRRRR   N    N  II  N    N   GGGG   !!!           |
|           W    W   A  A   R    R  NN   N  II  NN   N  G    G  !!!           |
|           W    W  A    A  R    R  N N  N  II  N N  N  G       !!!           |
|           W WW W  AAAAAA  RRRRR   N  N N  II  N  N N  G  GGG   !            |
|           WW  WW  A    A  R   R   N   NN  II  N   NN  G    G                |
|           W    W  A    A  R    R  N    N  II  N    N   GGGG   !!!           |
|                                                                             |
|      The distance between some ions is very small                           |
|      please check the nearest neigbor list in the OUTCAR file               |
|          I HOPE YOU KNOW, WHAT YOU ARE  DOING                               |
|                                                                             |
 ----------------------------------------------------------------------------- 

 POSCAR, INCAR and KPOINTS ok, starting setup
 WARNING: small aliasing (wrap around) errors must be expected
 FFT: planning ...
 WAVECAR not read
 entering main loop
       N       E                     dE             d eps       ncg     rms          rms(c)
DAV:   1     0.285697053175E+04    0.28570E+04   -0.13723E+05 10000   0.138E+03
DAV:   2     0.832292291566E+02   -0.27737E+04   -0.25939E+04 10216   0.415E+02
DAV:   3    -0.147019995436E+03   -0.23025E+03   -0.20651E+03 11632   0.112E+02
DAV:   4    -0.159511839007E+03   -0.12492E+02   -0.11627E+02 11832   0.278E+01
DAV:   5    -0.159794454460E+03   -0.28262E+00   -0.28200E+00 12288   0.376E+00    0.186E+01
RMM:   6    -0.199418992280E+03   -0.39625E+02   -0.85705E+01 10433   0.182E+01    0.364E+01
RMM:   7    -0.178315229522E+03    0.21104E+02   -0.23581E+01 10027   0.115E+01    0.331E+01
RMM:   8    -0.156243733733E+03    0.22071E+02   -0.15217E+01 10015   0.101E+01    0.200E+01
RMM:   9    -0.150534642883E+03    0.57091E+01   -0.55864E+00 10026   0.631E+00    0.581E+00
RMM:  10    -0.150381461280E+03    0.15318E+00   -0.26859E+00 10024   0.429E+00    0.601E+00
RMM:  11    -0.150039457989E+03    0.34200E+00   -0.82377E-01 10062   0.247E+00    0.570E+00
RMM:  12    -0.150232435228E+03   -0.19298E+00   -0.61682E-01 10024   0.212E+00    0.653E+00
RMM:  13    -0.149899324110E+03    0.33311E+00   -0.15718E-01 10027   0.110E+00    0.395E+00
RMM:  14    -0.149766457973E+03    0.13287E+00   -0.10948E-01 10029   0.832E-01    0.118E+00
RMM:  15    -0.149762025270E+03    0.44327E-02   -0.46936E-02 10035   0.536E-01    0.131E+00
RMM:  16    -0.149757327486E+03    0.46978E-02   -0.22702E-02 10028   0.419E-01    0.146E+00
RMM:  17    -0.149742049766E+03    0.15278E-01   -0.11421E-02 10032   0.265E-01    0.611E-01
RMM:  18    -0.149740248592E+03    0.18012E-02   -0.42688E-03 10029   0.184E-01    0.674E-01
RMM:  19    -0.149736126032E+03    0.41226E-02   -0.20732E-03 10037   0.120E-01    0.271E-01
RMM:  20    -0.149732931319E+03    0.31947E-02   -0.23499E-03 10029   0.128E-01    0.356E-01
RMM:  21    -0.149729298717E+03    0.36326E-02   -0.30823E-03 10079   0.104E-01    0.567E-01
RMM:  22    -0.149726310444E+03    0.29883E-02   -0.92043E-04 10082   0.695E-02    0.137E-01
RMM:  23    -0.149724086540E+03    0.22239E-02   -0.11268E-03 10050   0.651E-02    0.285E-01
RMM:  24    -0.149722150347E+03    0.19362E-02   -0.10218E-03 10052   0.523E-02    0.174E-01
RMM:  25    -0.149722128207E+03    0.22139E-04   -0.36830E-04 10000   0.386E-02    0.117E-01
RMM:  26    -0.149723594656E+03   -0.14664E-02   -0.29594E-04  9969   0.410E-02    0.963E-02
RMM:  27    -0.149725157646E+03   -0.15630E-02   -0.15959E-04  9100   0.293E-02    0.429E-02
RMM:  28    -0.149727140882E+03   -0.19832E-02   -0.22958E-04  9570   0.234E-02    0.258E-01
RMM:  29    -0.149727893910E+03   -0.75303E-03   -0.27816E-04  9042   0.250E-02    0.117E-01
RMM:  30    -0.149728447246E+03   -0.55334E-03   -0.16581E-04  8504   0.192E-02    0.187E-01
RMM:  31    -0.149728933868E+03   -0.48662E-03   -0.16630E-04  8524   0.194E-02    0.221E-01
RMM:  32    -0.149728776941E+03    0.15693E-03   -0.18524E-05  6183   0.826E-03    0.149E-01
RMM:  33    -0.149728658097E+03    0.11884E-03   -0.19839E-05  6127   0.834E-03    0.241E-02
RMM:  34    -0.149728677201E+03   -0.19104E-04   -0.18015E-05  6019   0.956E-03    0.307E-02
RMM:  35    -0.149728742044E+03   -0.64843E-04   -0.10452E-05  5642   0.749E-03    0.858E-02
RMM:  36    -0.149728729944E+03    0.12101E-04   -0.38993E-06  5586   0.627E-03    0.547E-02
RMM:  37    -0.149728721360E+03    0.85835E-05   -0.80945E-06  5624   0.500E-03
   1 F= -.14972872E+03 E0= -.14972598E+03  d E =-.149729E+03
quench:  g(F)=  0.000E+00 g(S)=  0.000E+00 dE (1.order)= 0.000E+00
 bond charge predicted
       N       E                     dE             d eps       ncg     rms          rms(c)
DAV:   1    -0.156173121441E+03   -0.64444E+01   -0.25169E+02 10152   0.248E+01    0.626E+00
RMM:   2    -0.177931328539E+03   -0.21758E+02   -0.73275E+00 10033   0.581E+00    0.388E+01
RMM:   3    -0.156839872685E+03    0.21091E+02   -0.54837E+00 10016   0.474E+00    0.637E+00
RMM:   4    -0.157316594924E+03   -0.47672E+00   -0.11789E+00 10021   0.257E+00    0.103E+01
RMM:   5    -0.156216796250E+03    0.10998E+01   -0.44616E-01 10010   0.169E+00    0.341E+00
RMM:   6    -0.156121443945E+03    0.95352E-01   -0.15758E-01 10010   0.111E+00    0.203E+00
RMM:   7    -0.156075134353E+03    0.46310E-01   -0.33364E-02 10019   0.485E-01    0.105E+00
RMM:   8    -0.156067048469E+03    0.80859E-02   -0.22773E-02 10030   0.386E-01    0.104E+00
RMM:   9    -0.156058224735E+03    0.88237E-02   -0.32143E-02 10041   0.394E-01    0.951E-01
RMM:  10    -0.156049810780E+03    0.84140E-02   -0.17925E-02 10112   0.313E-01    0.456E-01
RMM:  11    -0.156047896731E+03    0.19140E-02   -0.28365E-03 10041   0.134E-01    0.317E-01
RMM:  12    -0.156047075834E+03    0.82090E-03   -0.32939E-04 10127   0.437E-02    0.217E-01
RMM:  13    -0.156046799243E+03    0.27659E-03   -0.38920E-04 10007   0.472E-02    0.207E-01
RMM:  14    -0.156046270247E+03    0.52900E-03   -0.13680E-03 10159   0.745E-02    0.115E-01
RMM:  15    -0.156046180618E+03    0.89628E-04   -0.31705E-04 10186   0.419E-02    0.692E-02
RMM:  16    -0.156046188845E+03   -0.82263E-05   -0.56057E-05  8237   0.192E-02
   2 F= -.15604619E+03 E0= -.15604410E+03  d E =-.631747E+01
quench:  g(F)=  0.000E+00 g(S)=  0.000E+00 dE (1.order)= 0.000E+00
 bond charge predicted
       N       E                     dE             d eps       ncg     rms          rms(c)
DAV:   1    -0.157581336691E+03   -0.15352E+01   -0.25057E+02 10032   0.283E+01    0.468E+00
RMM:   2    -0.168867790050E+03   -0.11286E+02   -0.68208E+00 10425   0.525E+00    0.376E+01
RMM:   3    -0.158375539068E+03    0.10492E+02   -0.31961E+00 10030   0.423E+00    0.397E+00
RMM:   4    -0.159077123149E+03   -0.70158E+00   -0.80596E-01 10059   0.218E+00    0.103E+01
RMM:   5    -0.158263657191E+03    0.81347E+00   -0.26565E-01 10036   0.124E+00    0.483E+00
RMM:   6    -0.158082807451E+03    0.18085E+00   -0.98794E-02 10026   0.873E-01    0.229E+00
RMM:   7    -0.158040956307E+03    0.41851E-01   -0.56194E-02 10027   0.570E-01    0.181E+00
RMM:   8    -0.157999697065E+03    0.41259E-01   -0.50541E-02 10036   0.500E-01    0.121E+00
RMM:   9    -0.157992013271E+03    0.76838E-02   -0.17905E-02 10110   0.304E-01    0.107E+00
RMM:  10    -0.157984139796E+03    0.78735E-02   -0.64374E-03 10663   0.170E-01    0.762E-01
RMM:  11    -0.157981430818E+03    0.27090E-02   -0.16883E-03 10043   0.103E-01    0.617E-01
RMM:  12    -0.157977612759E+03    0.38181E-02   -0.15003E-03 10025   0.853E-02    0.479E-01
RMM:  13    -0.157974867783E+03    0.27450E-02   -0.15618E-03 10028   0.841E-02    0.311E-01
RMM:  14    -0.157973754075E+03    0.11137E-02   -0.10175E-03 10027   0.705E-02    0.200E-01
RMM:  15    -0.157973224390E+03    0.52969E-03   -0.62154E-04 10055   0.505E-02    0.936E-02
RMM:  16    -0.157973165453E+03    0.58937E-04   -0.20211E-04 10003   0.294E-02    0.618E-02
RMM:  17    -0.157973195130E+03   -0.29678E-04   -0.22114E-04  9739   0.297E-02    0.523E-02
RMM:  18    -0.157973219189E+03   -0.24058E-04   -0.11171E-04  8947   0.200E-02    0.335E-02
RMM:  19    -0.157973228911E+03   -0.97226E-05   -0.13740E-05  5641   0.107E-02
   3 F= -.15797323E+03 E0= -.15797111E+03  d E =-.192704E+01
quench:  g(F)=  0.000E+00 g(S)=  0.000E+00 dE (1.order)= 0.000E+00
 bond charge predicted
       N       E                     dE             d eps       ncg     rms          rms(c)
DAV:   1    -0.157457493184E+03    0.51573E+00   -0.25060E+02 10080   0.316E+01    0.396E+00
RMM:   2    -0.162683192066E+03   -0.52257E+01   -0.74305E+00 11487   0.588E+00    0.369E+01
RMM:   3    -0.158486804062E+03    0.41964E+01   -0.21887E+00 10841   0.326E+00    0.291E+00
RMM:   4    -0.158415354307E+03    0.71450E-01   -0.25952E-01 10559   0.103E+00    0.350E+00
RMM:   5    -0.158390224275E+03    0.25130E-01   -0.41564E-02 10091   0.471E-01    0.321E+00
RMM:   6    -0.158329921633E+03    0.60303E-01   -0.30776E-02 10034   0.459E-01    0.236E+00
RMM:   7    -0.158267677820E+03    0.62244E-01   -0.94363E-02 10032   0.620E-01    0.176E+00
RMM:   8    -0.158247136138E+03    0.20542E-01   -0.57154E-02 10856   0.458E-01    0.127E+00
RMM:   9    -0.158238939264E+03    0.81969E-02   -0.12563E-02 10935   0.239E-01    0.107E+00
RMM:  10    -0.158233609754E+03    0.53295E-02   -0.22295E-03 10079   0.106E-01    0.963E-01
RMM:  11    -0.158231342927E+03    0.22668E-02   -0.83283E-04 10047   0.714E-02    0.888E-01
RMM:  12    -0.158225729870E+03    0.56131E-02   -0.25124E-03 10034   0.901E-02    0.758E-01
RMM:  13    -0.158222836264E+03    0.28936E-02   -0.10178E-03 10498   0.611E-02    0.636E-01
RMM:  14    -0.158218808156E+03    0.40281E-02   -0.88321E-04  9924   0.528E-02    0.442E-01
RMM:  15    -0.158216965178E+03    0.18430E-02   -0.59109E-04  9945   0.417E-02    0.298E-01
RMM:  16    -0.158215947068E+03    0.10181E-02   -0.53251E-04  9924   0.405E-02    0.179E-01
RMM:  17    -0.158215489796E+03    0.45727E-03   -0.65303E-04  9996   0.458E-02    0.737E-02
RMM:  18    -0.158215458041E+03    0.31754E-04   -0.34303E-04 10816   0.339E-02    0.494E-02
RMM:  19    -0.158215435136E+03    0.22905E-04   -0.98120E-05  9325   0.194E-02    0.203E-02
RMM:  20    -0.158215436663E+03   -0.15263E-05   -0.14008E-05  5536   0.107E-02
   4 F= -.15821544E+03 E0= -.15821313E+03  d E =-.242208E+00
quench:  g(F)=  0.000E+00 g(S)=  0.000E+00 dE (1.order)= 0.000E+00
 bond charge predicted
       N       E                     dE             d eps       ncg     rms          rms(c)
DAV:   1    -0.158248635739E+03   -0.33201E-01   -0.27286E+00 10336   0.334E+00    0.291E-01
RMM:   2    -0.158266427668E+03   -0.17792E-01   -0.89343E-02 10039   0.670E-01    0.104E+00
RMM:   3    -0.158266166965E+03    0.26070E-03   -0.16207E-02 11920   0.241E-01    0.105E+00
RMM:   4    -0.158257394705E+03    0.87723E-02   -0.42361E-03 10041   0.165E-01    0.409E-01
RMM:   5    -0.158255610007E+03    0.17847E-02   -0.96198E-04 10026   0.839E-02    0.167E-01
RMM:   6    -0.158255364571E+03    0.24544E-03   -0.17541E-04  9907   0.325E-02    0.118E-01
RMM:   7    -0.158255243504E+03    0.12107E-03   -0.28800E-04 10245   0.365E-02    0.111E-01
RMM:   8    -0.158255058539E+03    0.18496E-03   -0.81890E-04 10418   0.533E-02    0.686E-02
RMM:   9    -0.158255047076E+03    0.11464E-04   -0.36131E-04 11985   0.371E-02    0.518E-02
RMM:  10    -0.158255038603E+03    0.84730E-05   -0.77469E-05  9036   0.200E-02
   5 F= -.15825504E+03 E0= -.15825278E+03  d E =-.396019E-01
quench:  g(F)=  0.000E+00 g(S)=  0.000E+00 dE (1.order)= 0.000E+00
 bond charge predicted
       N       E                     dE             d eps       ncg     rms          rms(c)
DAV:   1    -0.158281097041E+03   -0.26050E-01   -0.84938E+00 10000   0.593E+00    0.564E-01
RMM:   2    -0.158353016084E+03   -0.71919E-01   -0.29727E-01 10039   0.126E+00    0.215E+00
RMM:   3    -0.158340518569E+03    0.12498E-01   -0.57133E-02 11840   0.442E-01    0.194E+00
RMM:   4    -0.158308600404E+03    0.31918E-01   -0.15943E-02 10044   0.321E-01    0.709E-01
RMM:   5    -0.158303181891E+03    0.54185E-02   -0.32004E-03 10031   0.151E-01    0.297E-01
RMM:   6    -0.158302438995E+03    0.74290E-03   -0.59475E-04 10073   0.603E-02    0.210E-01
RMM:   7    -0.158302026818E+03    0.41218E-03   -0.10554E-03 10257   0.698E-02    0.190E-01
RMM:   8    -0.158301611515E+03    0.41530E-03   -0.19362E-03 10584   0.842E-02    0.139E-01
RMM:   9    -0.158301548442E+03    0.63073E-04   -0.11284E-03 11721   0.661E-02    0.109E-01
RMM:  10    -0.158301490958E+03    0.57484E-04   -0.32237E-04 11504   0.372E-02    0.557E-02
RMM:  11    -0.158301459909E+03    0.31049E-04   -0.31942E-05  6348   0.158E-02    0.427E-02
RMM:  12    -0.158301422985E+03    0.36923E-04   -0.50469E-05  7125   0.173E-02    0.239E-02
RMM:  13    -0.158301415381E+03    0.76043E-05   -0.26024E-05  5574   0.126E-02
   6 F= -.15830142E+03 E0= -.15829922E+03  d E =-.463768E-01
quench:  g(F)=  0.000E+00 g(S)=  0.000E+00 dE (1.order)= 0.000E+00
 bond charge predicted
       N       E                     dE             d eps       ncg     rms          rms(c)
DAV:   1    -0.158296716157E+03    0.47068E-02   -0.11679E+01 10000   0.705E+00    0.582E-01
RMM:   2    -0.158361279842E+03   -0.64564E-01   -0.38470E-01 10037   0.143E+00    0.190E+00
RMM:   3    -0.158366492178E+03   -0.52123E-02   -0.71537E-02 13177   0.482E-01    0.195E+00
RMM:   4    -0.158336964302E+03    0.29528E-01   -0.15561E-02 10045   0.325E-01    0.942E-01
RMM:   5    -0.158328310241E+03    0.86541E-02   -0.35458E-03 10029   0.162E-01    0.330E-01
RMM:   6    -0.158327439665E+03    0.87058E-03   -0.83387E-04 10194   0.721E-02    0.251E-01
RMM:   7    -0.158326369205E+03    0.10705E-02   -0.28415E-03 10485   0.102E-01    0.188E-01
RMM:   8    -0.158326124877E+03    0.24433E-03   -0.28436E-03 11517   0.101E-01    0.160E-01
RMM:   9    -0.158326121377E+03    0.34997E-05   -0.13681E-03 11947   0.720E-02    0.114E-01
RMM:  10    -0.158326013801E+03    0.10758E-03   -0.19502E-04 10266   0.345E-02    0.614E-02
RMM:  11    -0.158325961088E+03    0.52713E-04   -0.43233E-05  7255   0.168E-02    0.516E-02
RMM:  12    -0.158325908540E+03    0.52548E-04   -0.10885E-04  9565   0.221E-02    0.263E-02
RMM:  13    -0.158325900914E+03    0.76262E-05   -0.38110E-05  6378   0.136E-02
   7 F= -.15832590E+03 E0= -.15832375E+03  d E =-.244855E-01
quench:  g(F)=  0.000E+00 g(S)=  0.000E+00 dE (1.order)= 0.000E+00
 bond charge predicted
       N       E                     dE             d eps       ncg     rms          rms(c)
DAV:   1    -0.158329346231E+03   -0.34377E-02   -0.32045E+00 10016   0.360E+00    0.375E-01
RMM:   2    -0.158391291682E+03   -0.61945E-01   -0.11194E-01 10047   0.679E-01    0.300E+00
RMM:   3    -0.158347084541E+03    0.44207E-01   -0.20864E-02 10236   0.294E-01    0.992E-01
RMM:   4    -0.158340995657E+03    0.60889E-02   -0.68168E-03 10035   0.210E-01    0.628E-01
RMM:   5    -0.158337047685E+03    0.39480E-02   -0.12231E-03 10029   0.961E-02    0.189E-01
RMM:   6    -0.158336663389E+03    0.38430E-03   -0.22526E-04 10017   0.427E-02    0.134E-01
RMM:   7    -0.158336507655E+03    0.15573E-03   -0.30763E-04 10083   0.399E-02    0.113E-01
RMM:   8    -0.158336315328E+03    0.19233E-03   -0.78747E-04 10208   0.526E-02    0.532E-02
RMM:   9    -0.158336317553E+03   -0.22244E-05   -0.31656E-04 12259   0.336E-02    0.468E-02
RMM:  10    -0.158336306841E+03    0.10712E-04   -0.39748E-05  6915   0.170E-02    0.321E-02
RMM:  11    -0.158336297312E+03    0.95292E-05   -0.15100E-05  5332   0.139E-02
   8 F= -.15833630E+03 E0= -.15833413E+03  d E =-.103964E-01
quench:  g(F)=  0.000E+00 g(S)=  0.000E+00 dE (1.order)= 0.000E+00
 bond charge predicted
       N       E                     dE             d eps       ncg     rms          rms(c)
DAV:   1    -0.158337156956E+03   -0.85011E-03   -0.37493E+00 10000   0.397E+00    0.327E-01
RMM:   2    -0.158359090219E+03   -0.21933E-01   -0.11972E-01 10051   0.721E-01    0.134E+00
RMM:   3    -0.158353550328E+03    0.55399E-02   -0.19361E-02 13387   0.267E-01    0.853E-01
RMM:   4    -0.158352090784E+03    0.14595E-02   -0.47191E-03 10039   0.180E-01    0.729E-01
RMM:   5    -0.158346859495E+03    0.52313E-02   -0.15193E-03 10022   0.111E-01    0.174E-01
RMM:   6    -0.158346556024E+03    0.30347E-03   -0.29974E-04 10042   0.439E-02    0.134E-01
RMM:   7    -0.158346360861E+03    0.19516E-03   -0.68454E-04 10419   0.535E-02    0.123E-01
RMM:   8    -0.158346197867E+03    0.16299E-03   -0.85719E-04 10669   0.536E-02    0.877E-02
RMM:   9    -0.158346196160E+03    0.17073E-05   -0.37985E-04 12542   0.380E-02    0.626E-02
RMM:  10    -0.158346168768E+03    0.27392E-04   -0.55472E-05  8291   0.192E-02    0.379E-02
RMM:  11    -0.158346155979E+03    0.12789E-04   -0.10594E-05  5388   0.102E-02    0.298E-02
RMM:  12    -0.158346141288E+03    0.14690E-04   -0.13758E-05  5322   0.968E-03    0.188E-02
RMM:  13    -0.158346136795E+03    0.44936E-05   -0.11761E-05  5268   0.911E-03
   9 F= -.15834614E+03 E0= -.15834395E+03  d E =-.983948E-02
quench:  g(F)=  0.000E+00 g(S)=  0.000E+00 dE (1.order)= 0.000E+00
 bond charge predicted
       N       E                     dE             d eps       ncg     rms          rms(c)
DAV:   1    -0.158343658634E+03    0.24827E-02   -0.47811E+00 10000   0.447E+00    0.358E-01
RMM:   2    -0.158371627701E+03   -0.27969E-01   -0.15181E-01 10052   0.812E-01    0.152E+00
RMM:   3    -0.158363590471E+03    0.80372E-02   -0.23984E-02 13400   0.298E-01    0.899E-01
RMM:   4    -0.158362686427E+03    0.90404E-03   -0.56580E-03 10040   0.197E-01    0.820E-01
RMM:   5    -0.158356057512E+03    0.66289E-02   -0.18556E-03 10027   0.122E-01    0.193E-01
RMM:   6    -0.158355686013E+03    0.37150E-03   -0.37285E-04 10095   0.477E-02    0.152E-01
RMM:   7    -0.158355425044E+03    0.26097E-03   -0.88908E-04 10461   0.597E-02    0.140E-01
RMM:   8    -0.158355237384E+03    0.18766E-03   -0.98465E-04 10781   0.576E-02    0.109E-01
RMM:   9    -0.158355213625E+03    0.23759E-04   -0.48847E-04 12305   0.429E-02    0.717E-02
RMM:  10    -0.158355179105E+03    0.34521E-04   -0.85004E-05  9657   0.222E-02    0.417E-02
RMM:  11    -0.158355163245E+03    0.15859E-04   -0.12369E-05  5426   0.105E-02    0.328E-02
RMM:  12    -0.158355146052E+03    0.17193E-04   -0.14075E-05  5338   0.103E-02    0.212E-02
RMM:  13    -0.158355140792E+03    0.52598E-05   -0.11847E-05  5264   0.926E-03
  10 F= -.15835514E+03 E0= -.15835292E+03  d E =-.900400E-02
quench:  g(F)=  0.000E+00 g(S)=  0.000E+00 dE (1.order)= 0.000E+00
 bond charge predicted
       N       E                     dE             d eps       ncg     rms          rms(c)
DAV:   1    -0.158348339793E+03    0.68063E-02   -0.55812E+00 10032   0.485E+00    0.375E-01
RMM:   2    -0.158374092157E+03   -0.25752E-01   -0.17603E-01 10052   0.880E-01    0.129E+00
RMM:   3    -0.158372359790E+03    0.17324E-02   -0.27305E-02 13712   0.320E-01    0.102E+00
RMM:   4    -0.158370266549E+03    0.20932E-02   -0.60514E-03 10039   0.204E-01    0.859E-01
RMM:   5    -0.158363028406E+03    0.72381E-02   -0.21963E-03 10034   0.133E-01    0.211E-01
RMM:   6    -0.158362588377E+03    0.44003E-03   -0.44322E-04 10048   0.522E-02    0.166E-01
RMM:   7    -0.158362272507E+03    0.31587E-03   -0.98539E-04 10612   0.624E-02    0.156E-01
RMM:   8    -0.158362048865E+03    0.22364E-03   -0.10852E-03 10868   0.612E-02    0.128E-01
RMM:   9    -0.158361998244E+03    0.50622E-04   -0.73124E-04 12153   0.516E-02    0.787E-02
RMM:  10    -0.158361969266E+03    0.28978E-04   -0.14198E-04 10522   0.270E-02    0.493E-02
RMM:  11    -0.158361948297E+03    0.20969E-04   -0.15251E-05  5629   0.114E-02    0.410E-02
RMM:  12    -0.158361923158E+03    0.25139E-04   -0.18018E-05  5409   0.119E-02    0.283E-02
RMM:  13    -0.158361912406E+03    0.10752E-04   -0.19478E-05  5383   0.113E-02    0.192E-02
RMM:  14    -0.158361907231E+03    0.51752E-05   -0.41446E-05  6860   0.140E-02
  11 F= -.15836191E+03 E0= -.15835963E+03  d E =-.676644E-02
quench:  g(F)=  0.000E+00 g(S)=  0.000E+00 dE (1.order)= 0.000E+00
 bond charge predicted
       N       E                     dE             d eps       ncg     rms          rms(c)
DAV:   1    -0.158354419922E+03    0.74925E-02   -0.46317E+00 10016   0.441E+00    0.390E-01
RMM:   2    -0.158426006483E+03   -0.71587E-01   -0.15738E-01 10047   0.825E-01    0.300E+00
RMM:   3    -0.158374646942E+03    0.51360E-01   -0.24930E-02 10636   0.322E-01    0.874E-01
RMM:   4    -0.158372145192E+03    0.25018E-02   -0.79944E-03 10037   0.229E-01    0.775E-01
RMM:   5    -0.158366164579E+03    0.59806E-02   -0.17566E-03 10028   0.115E-01    0.213E-01
RMM:   6    -0.158365670738E+03    0.49384E-03   -0.30832E-04 10017   0.495E-02    0.156E-01
RMM:   7    -0.158365383326E+03    0.28741E-03   -0.50423E-04 10255   0.480E-02    0.124E-01
RMM:   8    -0.158365148787E+03    0.23454E-03   -0.96092E-04 10445   0.587E-02    0.889E-02
RMM:   9    -0.158365128027E+03    0.20760E-04   -0.54973E-04 11908   0.451E-02    0.726E-02
RMM:  10    -0.158365102321E+03    0.25707E-04   -0.13090E-04 10359   0.249E-02    0.419E-02
RMM:  11    -0.158365088190E+03    0.14131E-04   -0.17135E-05  5562   0.117E-02    0.315E-02
RMM:  12    -0.158365073264E+03    0.14927E-04   -0.17212E-05  5548   0.119E-02    0.211E-02
RMM:  13    -0.158365066911E+03    0.63525E-05   -0.14564E-05  5350   0.103E-02
  12 F= -.15836507E+03 E0= -.15836272E+03  d E =-.315968E-02
quench:  g(F)=  0.000E+00 g(S)=  0.000E+00 dE (1.order)= 0.000E+00
 bond charge predicted
       N       E                     dE             d eps       ncg     rms          rms(c)
DAV:   1    -0.158365021212E+03    0.52051E-04   -0.44141E-01 10160   0.134E+00    0.137E-01
RMM:   2    -0.158369427509E+03   -0.44063E-02   -0.14765E-02 10037   0.269E-01    0.605E-01
RMM:   3    -0.158368818933E+03    0.60858E-03   -0.32571E-03 10984   0.114E-01    0.528E-01
RMM:   4    -0.158366421386E+03    0.23975E-02   -0.85642E-04 10040   0.741E-02    0.162E-01
RMM:   5    -0.158366110316E+03    0.31107E-03   -0.19679E-04  9968   0.376E-02    0.694E-02
RMM:   6    -0.158366060997E+03    0.49319E-04   -0.31234E-05  6311   0.156E-02    0.477E-02
RMM:   7    -0.158366043843E+03    0.17154E-04   -0.27301E-05  5978   0.144E-02    0.458E-02
RMM:   8    -0.158366012257E+03    0.31586E-04   -0.15522E-04 10042   0.246E-02    0.341E-02
RMM:   9    -0.158366008243E+03    0.40138E-05   -0.61983E-05  7968   0.167E-02
  13 F= -.15836601E+03 E0= -.15836364E+03  d E =-.941332E-03
quench:  g(F)=  0.000E+00 g(S)=  0.000E+00 dE (1.order)= 0.000E+00
 bond charge predicted
       N       E                     dE             d eps       ncg     rms          rms(c)
DAV:   1    -0.158365998781E+03    0.13476E-04   -0.19016E-01 10144   0.897E-01    0.780E-02
RMM:   2    -0.158369504392E+03   -0.35056E-02   -0.67653E-03 10058   0.170E-01    0.585E-01
RMM:   3    -0.158366710038E+03    0.27944E-02   -0.10219E-03 10688   0.643E-02    0.122E-01
RMM:   4    -0.158366607869E+03    0.10217E-03   -0.30942E-04 10004   0.471E-02    0.115E-01
RMM:   5    -0.158366490280E+03    0.11759E-03   -0.65556E-05  8286   0.230E-02    0.489E-02
RMM:   6    -0.158366465602E+03    0.24678E-04   -0.12550E-05  5446   0.119E-02    0.293E-02
RMM:   7    -0.158366456352E+03    0.92492E-05   -0.11290E-05  5280   0.928E-03
  14 F= -.15836646E+03 E0= -.15836406E+03  d E =-.448109E-03
quench:  g(F)=  0.000E+00 g(S)=  0.000E+00 dE (1.order)= 0.000E+00
 bond charge predicted
       N       E                     dE             d eps       ncg     rms          rms(c)
DAV:   1    -0.158366329136E+03    0.13647E-03   -0.24901E-01 10112   0.103E+00    0.779E-02
RMM:   2    -0.158369237579E+03   -0.29084E-02   -0.80945E-03 10055   0.188E-01    0.511E-01
RMM:   3    -0.158367279868E+03    0.19577E-02   -0.11830E-03 11704   0.664E-02    0.166E-01
RMM:   4    -0.158367092605E+03    0.18726E-03   -0.30242E-04 10000   0.462E-02    0.122E-01
RMM:   5    -0.158366956236E+03    0.13637E-03   -0.69832E-05  8622   0.234E-02    0.558E-02
RMM:   6    -0.158366927835E+03    0.28401E-04   -0.15140E-05  5470   0.128E-02    0.376E-02
RMM:   7    -0.158366909023E+03    0.18812E-04   -0.47194E-05  7348   0.153E-02    0.377E-02
RMM:   8    -0.158366891596E+03    0.17426E-04   -0.81953E-05  9375   0.196E-02    0.241E-02
RMM:   9    -0.158366888250E+03    0.33458E-05   -0.33446E-05  6015   0.135E-02
  15 F= -.15836689E+03 E0= -.15836447E+03  d E =-.431898E-03
quench:  g(F)=  0.000E+00 g(S)=  0.000E+00 dE (1.order)= 0.000E+00
 bond charge predicted
       N       E                     dE             d eps       ncg     rms          rms(c)
DAV:   1    -0.158366617256E+03    0.27434E-03   -0.29557E-01 10136   0.112E+00    0.944E-02
RMM:   2    -0.158370767554E+03   -0.41503E-02   -0.10343E-02 10059   0.210E-01    0.616E-01
RMM:   3    -0.158367662963E+03    0.31046E-02   -0.15485E-03 11605   0.772E-02    0.139E-01
RMM:   4    -0.158367508021E+03    0.15494E-03   -0.34747E-04 10009   0.495E-02    0.114E-01
RMM:   5    -0.158367381244E+03    0.12678E-03   -0.80536E-05  9236   0.253E-02    0.574E-02
RMM:   6    -0.158367352457E+03    0.28787E-04   -0.14618E-05  5511   0.116E-02    0.356E-02
RMM:   7    -0.158367335285E+03    0.17172E-04   -0.22437E-05  5665   0.120E-02    0.303E-02
RMM:   8    -0.158367319774E+03    0.15511E-04   -0.63253E-05  8173   0.178E-02    0.230E-02
RMM:   9    -0.158367316806E+03    0.29688E-05   -0.37470E-05  6448   0.148E-02
  16 F= -.15836732E+03 E0= -.15836488E+03  d E =-.428555E-03
quench:  g(F)=  0.000E+00 g(S)=  0.000E+00 dE (1.order)= 0.000E+00
 bond charge predicted
       N       E                     dE             d eps       ncg     rms          rms(c)
DAV:   1    -0.158366810117E+03    0.50966E-03   -0.35546E-01 10096   0.123E+00    0.103E-01
RMM:   2    -0.158372133446E+03   -0.53233E-02   -0.12412E-02 10063   0.230E-01    0.706E-01
RMM:   3    -0.158368052695E+03    0.40808E-02   -0.18558E-03 11405   0.849E-02    0.142E-01
RMM:   4    -0.158367889147E+03    0.16355E-03   -0.40009E-04 10011   0.530E-02    0.129E-01
RMM:   5    -0.158367727725E+03    0.16142E-03   -0.97968E-05  9644   0.277E-02    0.626E-02
RMM:   6    -0.158367693817E+03    0.33908E-04   -0.17197E-05  5620   0.125E-02    0.390E-02
RMM:   7    -0.158367670635E+03    0.23182E-04   -0.32062E-05  6278   0.137E-02    0.320E-02
RMM:   8    -0.158367654522E+03    0.16113E-04   -0.66099E-05  8460   0.181E-02    0.251E-02
RMM:   9    -0.158367650781E+03    0.37411E-05   -0.45834E-05  7225   0.156E-02
  17 F= -.15836765E+03 E0= -.15836518E+03  d E =-.333975E-03
quench:  g(F)=  0.000E+00 g(S)=  0.000E+00 dE (1.order)= 0.000E+00
 bond charge predicted
       N       E                     dE             d eps       ncg     rms          rms(c)
DAV:   1    -0.158367076509E+03    0.57801E-03   -0.32880E-01 10184   0.119E+00    0.103E-01
RMM:   2    -0.158372549606E+03   -0.54731E-02   -0.11750E-02 10054   0.228E-01    0.740E-01
RMM:   3    -0.158368377770E+03    0.41718E-02   -0.17145E-03 10702   0.838E-02    0.182E-01
RMM:   4    -0.158368202302E+03    0.17547E-03   -0.54999E-04 10013   0.609E-02    0.172E-01
RMM:   5    -0.158367931709E+03    0.27059E-03   -0.13186E-04  9837   0.315E-02    0.642E-02
RMM:   6    -0.158367885759E+03    0.45950E-04   -0.23377E-05  5798   0.152E-02    0.383E-02
RMM:   7    -0.158367868162E+03    0.17597E-04   -0.21605E-05  5515   0.128E-02    0.335E-02
RMM:   8    -0.158367848393E+03    0.19768E-04   -0.71320E-05  8903   0.188E-02    0.254E-02
RMM:   9    -0.158367843324E+03    0.50688E-05   -0.45834E-05  7193   0.153E-02
  18 F= -.15836784E+03 E0= -.15836535E+03  d E =-.192544E-03
quench:  g(F)=  0.000E+00 g(S)=  0.000E+00 dE (1.order)= 0.000E+00
 bond charge predicted
       N       E                     dE             d eps       ncg     rms          rms(c)
DAV:   1    -0.158367378411E+03    0.46998E-03   -0.26859E-01 10128   0.108E+00    0.833E-02
RMM:   2    -0.158370111852E+03   -0.27334E-02   -0.91296E-03 10059   0.202E-01    0.463E-01
RMM:   3    -0.158368382947E+03    0.17289E-02   -0.13350E-03 12868   0.711E-02    0.167E-01
RMM:   4    -0.158368195685E+03    0.18726E-03   -0.35016E-04 10001   0.512E-02    0.114E-01
RMM:   5    -0.158368083429E+03    0.11226E-03   -0.67200E-05  8693   0.233E-02    0.581E-02
RMM:   6    -0.158368055425E+03    0.28004E-04   -0.17730E-05  5586   0.133E-02    0.376E-02
RMM:   7    -0.158368036898E+03    0.18527E-04   -0.22072E-05  5496   0.113E-02    0.303E-02
RMM:   8    -0.158368022425E+03    0.14473E-04   -0.66302E-05  8440   0.184E-02    0.278E-02
RMM:   9    -0.158368016840E+03    0.55845E-05   -0.39119E-05  6563   0.145E-02
  19 F= -.15836802E+03 E0= -.15836550E+03  d E =-.173516E-03
quench:  g(F)=  0.000E+00 g(S)=  0.000E+00 dE (1.order)= 0.000E+00
 bond charge predicted
       N       E                     dE             d eps       ncg     rms          rms(c)
DAV:   1    -0.158367596456E+03    0.42597E-03   -0.22665E-01 10176   0.984E-01    0.831E-02
RMM:   2    -0.158372189805E+03   -0.45933E-02   -0.82764E-03 10058   0.189E-01    0.668E-01
RMM:   3    -0.158368462474E+03    0.37273E-02   -0.12232E-03 10497   0.711E-02    0.127E-01
RMM:   4    -0.158368260887E+03    0.20159E-03   -0.34499E-04 10003   0.487E-02    0.886E-02
RMM:   5    -0.158368177060E+03    0.83827E-04   -0.55618E-05  8153   0.209E-02    0.525E-02
RMM:   6    -0.158368155128E+03    0.21932E-04   -0.11702E-05  5446   0.114E-02    0.334E-02
RMM:   7    -0.158368143075E+03    0.12052E-04   -0.10316E-05  5324   0.888E-03    0.285E-02
RMM:   8    -0.158368127003E+03    0.16072E-04   -0.40710E-05  6870   0.146E-02    0.217E-02
RMM:   9    -0.158368121779E+03    0.52245E-05   -0.34881E-05  6193   0.147E-02
  20 F= -.15836812E+03 E0= -.15836559E+03  d E =-.104938E-03
quench:  g(F)=  0.000E+00 g(S)=  0.000E+00 dE (1.order)= 0.000E+00
 reached required accuracy - stopping structural energy minimisation
 writing wavefunctions
