 running on   20 total cores
 distrk:  each k-point on   20 cores,    1 groups
 distr:  one band on    1 cores,   20 groups
 using from now: INCAR     
 vasp.5.4.1 05Feb16 (build Nov 22 2018 20:17:51) complex                        
  
 POSCAR found type information on POSCAR  Cu
 POSCAR found :  1 types and      36 ions
 scaLAPACK will be used

 ----------------------------------------------------------------------------- 
|                                                                             |
|           W    W    AA    RRRRR   N    N  II  N    N   GGGG   !!!           |
|           W    W   A  A   R    R  NN   N  II  NN   N  G    G  !!!           |
|           W    W  A    A  R    R  N N  N  II  N N  N  G       !!!           |
|           W WW W  AAAAAA  RRRRR   N  N N  II  N  N N  G  GGG   !            |
|           WW  WW  A    A  R   R   N   NN  II  N   NN  G    G                |
|           W    W  A    A  R    R  N    N  II  N    N   GGGG   !!!           |
|                                                                             |
|      For optimal performance we recommend to set                            |
|        NCORE= 4 - approx SQRT( number of cores)                             |
|      NCORE specifies how many cores store one orbital (NPAR=cpu/NCORE).     |
|      This setting can  greatly improve the performance of VASP for DFT.     |
|      The default, NPAR=number of cores might be grossly inefficient         |
|      on modern multi-core architectures or massively parallel machines.     |
|      Do your own testing !!!!                                               |
|      Unfortunately you need to use the default for GW and RPA calculations. |
|      (for HF NCORE is supported but not extensively tested yet)             |
|                                                                             |
 ----------------------------------------------------------------------------- 

 LDA part: xc-table for Ceperly-Alder, standard interpolation
 POSCAR found type information on POSCAR  Cu
 POSCAR found :  1 types and      36 ions
 POSCAR, INCAR and KPOINTS ok, starting setup
 WARNING: small aliasing (wrap around) errors must be expected
 FFT: planning ...
 WAVECAR not read
 entering main loop
       N       E                     dE             d eps       ncg     rms          rms(c)
DAV:   1     0.285354342834E+04    0.28535E+04   -0.17473E+05  7680   0.177E+03
DAV:   2     0.105450730830E+03   -0.27481E+04   -0.26295E+04  7680   0.394E+02
DAV:   3    -0.146812951769E+03   -0.25226E+03   -0.24279E+03  8320   0.157E+02
DAV:   4    -0.153187672251E+03   -0.63747E+01   -0.63353E+01  8320   0.280E+01
DAV:   5    -0.153240316652E+03   -0.52644E-01   -0.52638E-01  8540   0.188E+00    0.397E+01
DAV:   6    -0.139126791987E+03    0.14114E+02   -0.32351E+02  8500   0.928E+01    0.204E+01
DAV:   7    -0.126010283979E+03    0.13117E+02   -0.62448E+01  8500   0.449E+01    0.276E+00
DAV:   8    -0.126108408643E+03   -0.98125E-01   -0.45627E+00  8840   0.187E+01    0.362E+00
DAV:   9    -0.125936817024E+03    0.17159E+00   -0.80561E-01  8340   0.149E+01    0.247E+00
DAV:  10    -0.125824902732E+03    0.11191E+00   -0.25161E-01  8640   0.396E+00    0.801E-01
DAV:  11    -0.125815433269E+03    0.94695E-02   -0.10951E-01  8360   0.217E+00    0.211E-01
DAV:  12    -0.125811952047E+03    0.34812E-02   -0.22590E-02  8340   0.115E+00    0.110E-01
DAV:  13    -0.125809412927E+03    0.25391E-02   -0.54160E-03  8360   0.653E-01    0.643E-02
DAV:  14    -0.125805817774E+03    0.35952E-02   -0.73505E-03 11600   0.125E+00    0.483E-02
DAV:  15    -0.125808884200E+03   -0.30664E-02   -0.22750E-03  8580   0.485E-01    0.348E-02
DAV:  16    -0.125810302140E+03   -0.14179E-02   -0.16043E-03  9200   0.536E-01    0.202E-02
DAV:  17    -0.125811537754E+03   -0.12356E-02   -0.51839E-04  8640   0.135E-01    0.117E-02
DAV:  18    -0.125812193502E+03   -0.65575E-03   -0.37307E-04  7920   0.160E-01    0.134E-02
DAV:  19    -0.125812203202E+03   -0.96992E-05   -0.57692E-05  7640   0.621E-02
   1 F= -.12581220E+03 E0= -.12581115E+03  d E =-.125812E+03
 curvature:   0.00 expect dE= 0.000E+00 dE for cont linesearch  0.000E+00
 trial: gam= 0.00000 g(F)=  0.252E-03 g(S)=  0.000E+00 ort = 0.000E+00 (trialstep = 0.100E+01)
 search vector abs. value=  0.252E-03
 bond charge predicted
       N       E                     dE             d eps       ncg     rms          rms(c)
DAV:   1    -0.125812436904E+03   -0.24340E-03   -0.12937E-02  8140   0.255E-01    0.897E-03
DAV:   2    -0.125812447300E+03   -0.10396E-04   -0.97290E-05  8100   0.523E-02    0.571E-03
DAV:   3    -0.125812448700E+03   -0.13997E-05   -0.45952E-06  4820   0.260E-02
   2 F= -.12581245E+03 E0= -.12581142E+03  d E =-.245498E-03
 ZBRENT: can't locate minimum, use default step
 trial-energy change:   -0.000245  1 .order   -0.000239   -0.000252   -0.000225
 step:   4.0000(harm=  9.3430)  dis= 0.00146  next Energy=  -125.813382 (dE=-0.118E-02)
 bond charge predicted
       N       E                     dE             d eps       ncg     rms          rms(c)
DAV:   1    -0.125812986462E+03   -0.53916E-03   -0.11623E-01  7820   0.749E-01    0.241E-02
DAV:   2    -0.125813026263E+03   -0.39801E-04   -0.53310E-04  8120   0.105E-01    0.183E-02
DAV:   3    -0.125813025322E+03    0.94133E-06   -0.53877E-05  7980   0.100E-01
   3 F= -.12581303E+03 E0= -.12581206E+03  d E =-.822120E-03
 curvature:  -2.76 expect dE=-0.249E-03 dE for cont linesearch -0.246E-03
 ZBRENT: increasing intervall
 opt :  10.0000  next Energy=  -125.813475 (dE=-0.127E-02)
 bond charge predicted
       N       E                     dE             d eps       ncg     rms          rms(c)
DAV:   1    -0.125813376687E+03   -0.35042E-03   -0.46514E-01  7780   0.150E+00    0.465E-02
DAV:   2    -0.125813537360E+03   -0.16067E-03   -0.20777E-03  8140   0.195E-01    0.328E-02
DAV:   3    -0.125813529070E+03    0.82897E-05   -0.13546E-04  8920   0.169E-01    0.278E-02
DAV:   4    -0.125813509115E+03    0.19956E-04   -0.39511E-05  7460   0.132E-01    0.307E-03
DAV:   5    -0.125813509735E+03   -0.61998E-06   -0.75240E-06  4660   0.190E-02
   4 F= -.12581351E+03 E0= -.12581260E+03  d E =-.130653E-02
 curvature:  -5.03 expect dE=-0.393E-04 dE for cont linesearch -0.753E-06
 trial: gam= 0.00658 g(F)=  0.781E-05 g(S)=  0.000E+00 ort = 0.615E-05 (trialstep = 0.280E+01)
 search vector abs. value=  0.790E-05
 reached required accuracy - stopping structural energy minimisation
 writing wavefunctions
