 running on   40 total cores
 distrk:  each k-point on   40 cores,    1 groups
 distr:  one band on    1 cores,   40 groups
 using from now: INCAR     
 vasp.5.4.1 05Feb16 (build Sep 02 2018 21:45:25) complex                        
  
 POSCAR found type information on POSCAR  Cu H 
 POSCAR found :  2 types and      65 ions
 scaLAPACK will be used

 ----------------------------------------------------------------------------- 
|                                                                             |
|           W    W    AA    RRRRR   N    N  II  N    N   GGGG   !!!           |
|           W    W   A  A   R    R  NN   N  II  NN   N  G    G  !!!           |
|           W    W  A    A  R    R  N N  N  II  N N  N  G       !!!           |
|           W WW W  AAAAAA  RRRRR   N  N N  II  N  N N  G  GGG   !            |
|           WW  WW  A    A  R   R   N   NN  II  N   NN  G    G                |
|           W    W  A    A  R    R  N    N  II  N    N   GGGG   !!!           |
|                                                                             |
|      For optimal performance we recommend to set                            |
|        NCORE= 4 - approx SQRT( number of cores)                             |
|      NCORE specifies how many cores store one orbital (NPAR=cpu/NCORE).     |
|      This setting can  greatly improve the performance of VASP for DFT.     |
|      The default, NPAR=number of cores might be grossly inefficient         |
|      on modern multi-core architectures or massively parallel machines.     |
|      Do your own testing !!!!                                               |
|      Unfortunately you need to use the default for GW and RPA calculations. |
|      (for HF NCORE is supported but not extensively tested yet)             |
|                                                                             |
 ----------------------------------------------------------------------------- 

 LDA part: xc-table for Ceperly-Alder, standard interpolation
 POSCAR, INCAR and KPOINTS ok, starting setup
 WARNING: small aliasing (wrap around) errors must be expected
 FFT: planning ...
 WAVECAR not read
 entering main loop
       N       E                     dE             d eps       ncg     rms          rms(c)
DAV:   1     0.536562343352E+04    0.53656E+04   -0.31391E+05 22000   0.190E+03
DAV:   2     0.270659741018E+03   -0.50950E+04   -0.48623E+04 22000   0.410E+02
DAV:   3    -0.261490054699E+03   -0.53215E+03   -0.50549E+03 23320   0.165E+02
DAV:   4    -0.276699714101E+03   -0.15210E+02   -0.15137E+02 24000   0.319E+01
DAV:   5    -0.276795123655E+03   -0.95410E-01   -0.95402E-01 23720   0.217E+00    0.532E+01
DAV:   6    -0.250939131886E+03    0.25856E+02   -0.54296E+02 24960   0.905E+01    0.269E+01
DAV:   7    -0.227999321443E+03    0.22940E+02   -0.10489E+02 24400   0.432E+01    0.370E+00
DAV:   8    -0.228118151242E+03   -0.11883E+00   -0.75668E+00 25840   0.218E+01    0.516E+00
DAV:   9    -0.227846809396E+03    0.27134E+00   -0.34926E+00 25000   0.191E+01    0.360E+00
DAV:  10    -0.227661508977E+03    0.18530E+00   -0.14548E+00 26840   0.111E+01    0.277E+00
DAV:  11    -0.227511795127E+03    0.14971E+00   -0.59022E-01 23600   0.423E+00    0.572E-01
DAV:  12    -0.227510907774E+03    0.88735E-03   -0.13753E-01 23240   0.217E+00    0.358E-01
DAV:  13    -0.227501534621E+03    0.93732E-02   -0.36381E-02 23640   0.148E+00    0.210E-01
DAV:  14    -0.227495072485E+03    0.64621E-02   -0.11055E-02 22800   0.725E-01    0.112E-01
DAV:  15    -0.227490766242E+03    0.43062E-02   -0.47229E-03 23360   0.600E-01    0.107E-01
DAV:  16    -0.227490617712E+03    0.14853E-03   -0.19718E-03 23320   0.348E-01    0.796E-02
DAV:  17    -0.227493757142E+03   -0.31394E-02   -0.32687E-03 22120   0.481E-01    0.738E-02
DAV:  18    -0.227498370990E+03   -0.46138E-02   -0.15065E-03 23600   0.174E-01    0.590E-02
DAV:  19    -0.227501583457E+03   -0.32125E-02   -0.90574E-04 23360   0.229E-01    0.393E-02
DAV:  20    -0.227505239338E+03   -0.36559E-02   -0.66569E-03 38360   0.598E-01    0.862E-02
DAV:  21    -0.227505113778E+03    0.12556E-03   -0.85958E-04 27480   0.169E-01    0.592E-02
DAV:  22    -0.227504948068E+03    0.16571E-03   -0.45513E-04 38200   0.140E-01    0.362E-02
DAV:  23    -0.227505281019E+03   -0.33295E-03   -0.49275E-04 23480   0.173E-01    0.661E-02
DAV:  24    -0.227505108201E+03    0.17282E-03   -0.22508E-04 27680   0.134E-01    0.446E-02
DAV:  25    -0.227504986436E+03    0.12177E-03   -0.49711E-04 33160   0.198E-01    0.154E-02
DAV:  26    -0.227505028947E+03   -0.42511E-04   -0.25430E-04 38560   0.132E-01    0.155E-02
DAV:  27    -0.227505005471E+03    0.23476E-04   -0.11338E-04 31560   0.702E-02    0.736E-03
DAV:  28    -0.227505005207E+03    0.26457E-06   -0.66029E-05 16360   0.656E-02    0.669E-03
DAV:  29    -0.227505005778E+03   -0.57093E-06   -0.24568E-05 22920   0.194E-02    0.363E-03
DAV:  30    -0.227505004088E+03    0.16894E-05   -0.97006E-06 15400   0.244E-02    0.203E-03
DAV:  31    -0.227505004786E+03   -0.69752E-06   -0.27392E-06 17280   0.515E-03
   1 F= -.22750500E+03 E0= -.22750438E+03  d E =-.125052E-02
 Finite differences POTIM= 0.02000 DOF=  12
 bond charge predicted
       N       E                     dE             d eps       ncg     rms          rms(c)
DAV:   1    -0.227503507939E+03    0.14961E-02   -0.20808E+00 22240   0.223E+00    0.881E-02
DAV:   2    -0.227503672850E+03   -0.16491E-03   -0.34204E-03 24400   0.180E-01    0.634E-02
DAV:   3    -0.227503697064E+03   -0.24214E-04   -0.96282E-04 25000   0.326E-01    0.660E-02
DAV:   4    -0.227503635142E+03    0.61922E-04   -0.11956E-03 31360   0.357E-01    0.418E-02
DAV:   5    -0.227503571381E+03    0.63762E-04   -0.36668E-04 32720   0.194E-01    0.127E-02
DAV:   6    -0.227503570226E+03    0.11544E-05   -0.43681E-05 28400   0.344E-02    0.477E-03
DAV:   7    -0.227503570121E+03    0.10492E-06   -0.56068E-06 24000   0.152E-02
   2 F= -.22750357E+03 E0= -.22750294E+03  d E =-.125808E-02
 Finite differences progress:
  Degree of freedom:   1/ 12
  Displacement:        1/  2
  Total:               1/ 24
 bond charge predicted
       N       E                     dE             d eps       ncg     rms          rms(c)
DAV:   1    -0.227503363660E+03    0.20657E-03   -0.83866E+00 22000   0.449E+00    0.184E-01
DAV:   2    -0.227504145897E+03   -0.78224E-03   -0.15058E-02 25480   0.529E-01    0.145E-01
DAV:   3    -0.227504139601E+03    0.62956E-05   -0.45162E-03 25000   0.656E-01    0.123E-01
DAV:   4    -0.227504315180E+03   -0.17558E-03   -0.54228E-03 29320   0.750E-01    0.109E-01
DAV:   5    -0.227503767201E+03    0.54798E-03   -0.29515E-03 31040   0.547E-01    0.239E-02
DAV:   6    -0.227503770522E+03   -0.33211E-05   -0.23745E-04 24560   0.769E-02    0.113E-02
DAV:   7    -0.227503770356E+03    0.16573E-06   -0.38255E-05 24000   0.342E-02    0.657E-03
DAV:   8    -0.227503769691E+03    0.66553E-06   -0.61049E-06 24360   0.150E-02
   3 F= -.22750377E+03 E0= -.22750315E+03  d E =-.124172E-02
 Finite differences progress:
  Degree of freedom:   1/ 12
  Displacement:        2/  2
  Total:               2/ 24
 bond charge predicted
       N       E                     dE             d eps       ncg     rms          rms(c)
DAV:   1    -0.227503661539E+03    0.10882E-03   -0.41696E+00 22000   0.315E+00    0.124E-01
DAV:   2    -0.227504029075E+03   -0.36754E-03   -0.72034E-03 24480   0.265E-01    0.895E-02
DAV:   3    -0.227504078433E+03   -0.49358E-04   -0.19071E-03 25000   0.455E-01    0.919E-02
DAV:   4    -0.227503963924E+03    0.11451E-03   -0.23885E-03 31360   0.505E-01    0.597E-02
DAV:   5    -0.227503832742E+03    0.13118E-03   -0.76642E-04 31800   0.282E-01    0.171E-02
DAV:   6    -0.227503831036E+03    0.17060E-05   -0.88274E-05 25000   0.479E-02    0.703E-03
DAV:   7    -0.227503830725E+03    0.31100E-06   -0.11378E-05 25080   0.218E-02    0.431E-03
DAV:   8    -0.227503830374E+03    0.35162E-06   -0.28699E-06 18320   0.125E-02
   4 F= -.22750383E+03 E0= -.22750320E+03  d E =-.125511E-02
 Finite differences progress:
  Degree of freedom:   2/ 12
  Displacement:        1/  2
  Total:               3/ 24
 bond charge predicted
       N       E                     dE             d eps       ncg     rms          rms(c)
DAV:   1    -0.227503674630E+03    0.15610E-03   -0.83976E+00 22000   0.449E+00    0.186E-01
DAV:   2    -0.227504389450E+03   -0.71482E-03   -0.14956E-02 24960   0.461E-01    0.142E-01
DAV:   3    -0.227504371506E+03    0.17943E-04   -0.40484E-03 25000   0.639E-01    0.130E-01
DAV:   4    -0.227504407410E+03   -0.35904E-04   -0.48197E-03 32960   0.704E-01    0.979E-02
DAV:   5    -0.227503965763E+03    0.44165E-03   -0.24499E-03 32360   0.495E-01    0.268E-02
DAV:   6    -0.227503961724E+03    0.40388E-05   -0.20154E-04 25040   0.721E-02    0.103E-02
DAV:   7    -0.227503961635E+03    0.88825E-07   -0.32525E-05 24000   0.320E-02    0.656E-03
DAV:   8    -0.227503960759E+03    0.87649E-06   -0.65631E-06 23120   0.160E-02
   5 F= -.22750396E+03 E0= -.22750334E+03  d E =-.124572E-02
 Finite differences progress:
  Degree of freedom:   2/ 12
  Displacement:        2/  2
  Total:               4/ 24
 bond charge predicted
       N       E                     dE             d eps       ncg     rms          rms(c)
DAV:   1    -0.227504101432E+03   -0.13980E-03   -0.41988E+00 22000   0.317E+00    0.142E-01
DAV:   2    -0.227504330240E+03   -0.22881E-03   -0.70069E-03 23920   0.266E-01    0.101E-01
DAV:   3    -0.227504349803E+03   -0.19563E-04   -0.22607E-03 25000   0.491E-01    0.104E-01
DAV:   4    -0.227504222656E+03    0.12715E-03   -0.26466E-03 31560   0.533E-01    0.624E-02
DAV:   5    -0.227504070686E+03    0.15197E-03   -0.91905E-04 33280   0.297E-01    0.206E-02
DAV:   6    -0.227504066314E+03    0.43727E-05   -0.93376E-05 28200   0.461E-02    0.788E-03
DAV:   7    -0.227504065438E+03    0.87550E-06   -0.11983E-05 23960   0.218E-02    0.501E-03
DAV:   8    -0.227504064848E+03    0.59046E-06   -0.39322E-06 22320   0.150E-02
   6 F= -.22750406E+03 E0= -.22750343E+03  d E =-.127329E-02
 Finite differences progress:
  Degree of freedom:   3/ 12
  Displacement:        1/  2
  Total:               5/ 24
 bond charge predicted
       N       E                     dE             d eps       ncg     rms          rms(c)
DAV:   1    -0.227504407440E+03   -0.34200E-03   -0.84540E+00 22000   0.446E+00    0.214E-01
DAV:   2    -0.227504595794E+03   -0.18835E-03   -0.12690E-02 24800   0.577E-01    0.162E-01
DAV:   3    -0.227504512952E+03    0.82842E-04   -0.49007E-03 25000   0.712E-01    0.137E-01
DAV:   4    -0.227504724982E+03   -0.21203E-03   -0.65487E-03 28280   0.823E-01    0.115E-01
DAV:   5    -0.227504073366E+03    0.65162E-03   -0.37313E-03 32800   0.600E-01    0.207E-02
DAV:   6    -0.227504078619E+03   -0.52528E-05   -0.25296E-04 22960   0.715E-02    0.122E-02
DAV:   7    -0.227504075692E+03    0.29269E-05   -0.34031E-05 24000   0.347E-02    0.663E-03
DAV:   8    -0.227504075527E+03    0.16493E-06   -0.59617E-06 22680   0.178E-02
   7 F= -.22750408E+03 E0= -.22750346E+03  d E =-.122438E-02
 Finite differences progress:
  Degree of freedom:   3/ 12
  Displacement:        2/  2
  Total:               6/ 24
 bond charge predicted
       N       E                     dE             d eps       ncg     rms          rms(c)
DAV:   1    -0.227503591178E+03    0.48451E-03   -0.41745E+00 22000   0.320E+00    0.137E-01
DAV:   2    -0.227504003160E+03   -0.41198E-03   -0.86563E-03 24000   0.359E-01    0.107E-01
DAV:   3    -0.227503973987E+03    0.29172E-04   -0.21108E-03 24880   0.439E-01    0.920E-02
DAV:   4    -0.227503856763E+03    0.11722E-03   -0.10779E-03 33080   0.317E-01    0.448E-02
DAV:   5    -0.227503788559E+03    0.68204E-04   -0.54930E-04 30960   0.227E-01    0.213E-02
DAV:   6    -0.227503780213E+03    0.83460E-05   -0.71419E-05 23760   0.591E-02    0.989E-03
DAV:   7    -0.227503779572E+03    0.64104E-06   -0.19868E-05 23960   0.258E-02    0.503E-03
DAV:   8    -0.227503779052E+03    0.51950E-06   -0.44992E-06 22680   0.901E-03
   8 F= -.22750378E+03 E0= -.22750316E+03  d E =-.124149E-02
 Finite differences progress:
  Degree of freedom:   4/ 12
  Displacement:        1/  2
  Total:               7/ 24
 bond charge predicted
       N       E                     dE             d eps       ncg     rms          rms(c)
DAV:   1    -0.227503113621E+03    0.66595E-03   -0.83841E+00 22000   0.447E+00    0.175E-01
DAV:   2    -0.227503993730E+03   -0.88011E-03   -0.15831E-02 24200   0.361E-01    0.124E-01
DAV:   3    -0.227504014925E+03   -0.21195E-04   -0.31351E-03 25480   0.603E-01    0.118E-01
DAV:   4    -0.227503723468E+03    0.29146E-03   -0.42433E-03 31480   0.676E-01    0.667E-02
DAV:   5    -0.227503566923E+03    0.15654E-03   -0.97931E-04 31560   0.321E-01    0.187E-02
DAV:   6    -0.227503561852E+03    0.50715E-05   -0.11451E-04 23320   0.471E-02    0.793E-03
DAV:   7    -0.227503561488E+03    0.36375E-06   -0.15934E-05 25240   0.305E-02    0.619E-03
DAV:   8    -0.227503560966E+03    0.52228E-06   -0.58685E-06 23400   0.212E-02
   9 F= -.22750356E+03 E0= -.22750293E+03  d E =-.125859E-02
 Finite differences progress:
  Degree of freedom:   4/ 12
  Displacement:        2/  2
  Total:               8/ 24
 bond charge predicted
       N       E                     dE             d eps       ncg     rms          rms(c)
DAV:   1    -0.227503766155E+03   -0.20467E-03   -0.41801E+00 22000   0.316E+00    0.131E-01
DAV:   2    -0.227504058544E+03   -0.29239E-03   -0.69091E-03 24720   0.263E-01    0.940E-02
DAV:   3    -0.227504040136E+03    0.18408E-04   -0.16762E-03 25000   0.432E-01    0.948E-02
DAV:   4    -0.227503946491E+03    0.93645E-04   -0.17144E-03 30800   0.433E-01    0.519E-02
DAV:   5    -0.227503836015E+03    0.11048E-03   -0.75036E-04 33680   0.262E-01    0.190E-02
DAV:   6    -0.227503830773E+03    0.52426E-05   -0.73639E-05 25880   0.464E-02    0.650E-03
DAV:   7    -0.227503830594E+03    0.17899E-06   -0.12734E-05 24000   0.224E-02    0.456E-03
DAV:   8    -0.227503830186E+03    0.40815E-06   -0.32294E-06 22480   0.131E-02
  10 F= -.22750383E+03 E0= -.22750320E+03  d E =-.125537E-02
 Finite differences progress:
  Degree of freedom:   5/ 12
  Displacement:        1/  2
  Total:               9/ 24
 bond charge predicted
       N       E                     dE             d eps       ncg     rms          rms(c)
DAV:   1    -0.227503681496E+03    0.14910E-03   -0.83977E+00 22000   0.449E+00    0.186E-01
DAV:   2    -0.227504391135E+03   -0.70964E-03   -0.14936E-02 24960   0.463E-01    0.142E-01
DAV:   3    -0.227504361732E+03    0.29403E-04   -0.39824E-03 25000   0.634E-01    0.129E-01
DAV:   4    -0.227504394083E+03   -0.32351E-04   -0.46239E-03 32840   0.690E-01    0.961E-02
DAV:   5    -0.227503965429E+03    0.42865E-03   -0.24119E-03 32320   0.489E-01    0.265E-02
DAV:   6    -0.227503961246E+03    0.41831E-05   -0.19683E-04 24800   0.717E-02    0.102E-02
DAV:   7    -0.227503961230E+03    0.15629E-07   -0.32394E-05 24000   0.318E-02    0.653E-03
DAV:   8    -0.227503960359E+03    0.87175E-06   -0.64760E-06 23120   0.160E-02
  11 F= -.22750396E+03 E0= -.22750334E+03  d E =-.124574E-02
 Finite differences progress:
  Degree of freedom:   5/ 12
  Displacement:        2/  2
  Total:              10/ 24
 bond charge predicted
       N       E                     dE             d eps       ncg     rms          rms(c)
DAV:   1    -0.227504105282E+03   -0.14405E-03   -0.41988E+00 22000   0.317E+00    0.142E-01
DAV:   2    -0.227504333130E+03   -0.22785E-03   -0.70050E-03 23920   0.266E-01    0.101E-01
DAV:   3    -0.227504355106E+03   -0.21976E-04   -0.22777E-03 25000   0.493E-01    0.105E-01
DAV:   4    -0.227504227320E+03    0.12779E-03   -0.26790E-03 31680   0.535E-01    0.628E-02
DAV:   5    -0.227504073521E+03    0.15380E-03   -0.92407E-04 33280   0.298E-01    0.207E-02
DAV:   6    -0.227504069244E+03    0.42767E-05   -0.94193E-05 28240   0.462E-02    0.789E-03
DAV:   7    -0.227504068375E+03    0.86859E-06   -0.12057E-05 23960   0.217E-02    0.502E-03
DAV:   8    -0.227504067789E+03    0.58644E-06   -0.39462E-06 22320   0.150E-02
  12 F= -.22750407E+03 E0= -.22750343E+03  d E =-.127328E-02
 Finite differences progress:
  Degree of freedom:   6/ 12
  Displacement:        1/  2
  Total:              11/ 24
 bond charge predicted
       N       E                     dE             d eps       ncg     rms          rms(c)
DAV:   1    -0.227504404263E+03   -0.33589E-03   -0.84540E+00 22000   0.446E+00    0.214E-01
DAV:   2    -0.227504591611E+03   -0.18735E-03   -0.12690E-02 24800   0.577E-01    0.162E-01
DAV:   3    -0.227504508365E+03    0.83245E-04   -0.48986E-03 25000   0.712E-01    0.137E-01
DAV:   4    -0.227504720547E+03   -0.21218E-03   -0.65432E-03 28280   0.822E-01    0.115E-01
DAV:   5    -0.227504069394E+03    0.65115E-03   -0.37294E-03 32800   0.600E-01    0.207E-02
DAV:   6    -0.227504074641E+03   -0.52462E-05   -0.25279E-04 23000   0.715E-02    0.122E-02
DAV:   7    -0.227504071712E+03    0.29288E-05   -0.34024E-05 24000   0.347E-02    0.663E-03
DAV:   8    -0.227504071547E+03    0.16449E-06   -0.59577E-06 22640   0.178E-02
  13 F= -.22750407E+03 E0= -.22750346E+03  d E =-.122438E-02
 Finite differences progress:
  Degree of freedom:   6/ 12
  Displacement:        2/  2
  Total:              12/ 24
 bond charge predicted
       N       E                     dE             d eps       ncg     rms          rms(c)
DAV:   1    -0.227503833778E+03    0.23793E-03   -0.41787E+00 22000   0.320E+00    0.136E-01
DAV:   2    -0.227504269751E+03   -0.43597E-03   -0.89304E-03 24000   0.291E-01    0.967E-02
DAV:   3    -0.227504195361E+03    0.74390E-04   -0.14622E-03 24840   0.408E-01    0.925E-02
DAV:   4    -0.227504060321E+03    0.13504E-03   -0.11132E-03 26760   0.370E-01    0.400E-02
DAV:   5    -0.227504015698E+03    0.44622E-04   -0.49073E-04 32880   0.201E-01    0.181E-02
DAV:   6    -0.227504008712E+03    0.69861E-05   -0.63597E-05 25960   0.421E-02    0.675E-03
DAV:   7    -0.227504008171E+03    0.54186E-06   -0.98571E-06 23840   0.209E-02
  14 F= -.22750401E+03 E0= -.22750338E+03  d E =-.125036E-02
 Finite differences progress:
  Degree of freedom:   7/ 12
  Displacement:        1/  2
  Total:              13/ 24
 bond charge predicted
       N       E                     dE             d eps       ncg     rms          rms(c)
DAV:   1    -0.227503784924E+03    0.22379E-03   -0.84031E+00 22000   0.448E+00    0.185E-01
DAV:   2    -0.227504485039E+03   -0.70012E-03   -0.14926E-02 24760   0.376E-01    0.133E-01
DAV:   3    -0.227504374429E+03    0.11061E-03   -0.28975E-03 24960   0.565E-01    0.131E-01
DAV:   4    -0.227504049266E+03    0.32516E-03   -0.12618E-03 28560   0.393E-01    0.390E-02
DAV:   5    -0.227504034426E+03    0.14840E-04   -0.66372E-04 33160   0.214E-01    0.279E-02
DAV:   6    -0.227504012418E+03    0.22008E-04   -0.11076E-04 24720   0.889E-02    0.912E-03
DAV:   7    -0.227504011754E+03    0.66440E-06   -0.25634E-05 25520   0.256E-02    0.566E-03
DAV:   8    -0.227504011572E+03    0.18136E-06   -0.69214E-06 23680   0.227E-02
  15 F= -.22750401E+03 E0= -.22750339E+03  d E =-.125118E-02
 Finite differences progress:
  Degree of freedom:   7/ 12
  Displacement:        2/  2
  Total:              14/ 24
 bond charge predicted
       N       E                     dE             d eps       ncg     rms          rms(c)
DAV:   1    -0.227503554044E+03    0.45771E-03   -0.41752E+00 22000   0.316E+00    0.131E-01
DAV:   2    -0.227503866350E+03   -0.31231E-03   -0.69708E-03 25360   0.333E-01    0.100E-01
DAV:   3    -0.227503871162E+03   -0.48126E-05   -0.21499E-03 25000   0.464E-01    0.908E-02
DAV:   4    -0.227503913140E+03   -0.41978E-04   -0.26978E-03 31040   0.529E-01    0.743E-02
DAV:   5    -0.227503663993E+03    0.24915E-03   -0.13430E-03 31520   0.369E-01    0.182E-02
DAV:   6    -0.227503664171E+03   -0.17807E-06   -0.11467E-04 25440   0.535E-02    0.768E-03
DAV:   7    -0.227503664069E+03    0.10234E-06   -0.17763E-05 24040   0.232E-02    0.471E-03
DAV:   8    -0.227503663669E+03    0.40003E-06   -0.31842E-06 22280   0.118E-02
  16 F= -.22750366E+03 E0= -.22750304E+03  d E =-.124029E-02
 Finite differences progress:
  Degree of freedom:   8/ 12
  Displacement:        1/  2
  Total:              15/ 24
 bond charge predicted
       N       E                     dE             d eps       ncg     rms          rms(c)
DAV:   1    -0.227502955108E+03    0.70896E-03   -0.83782E+00 22000   0.446E+00    0.173E-01
DAV:   2    -0.227503847784E+03   -0.89268E-03   -0.15765E-02 24320   0.371E-01    0.124E-01
DAV:   3    -0.227503936398E+03   -0.88615E-04   -0.35229E-03 25000   0.630E-01    0.124E-01
DAV:   4    -0.227503652170E+03    0.28423E-03   -0.46441E-03 31880   0.704E-01    0.758E-02
DAV:   5    -0.227503449429E+03    0.20274E-03   -0.12287E-03 31880   0.360E-01    0.206E-02
DAV:   6    -0.227503445523E+03    0.39062E-05   -0.14397E-04 23800   0.555E-02    0.883E-03
DAV:   7    -0.227503444902E+03    0.62083E-06   -0.17774E-05 25760   0.294E-02    0.597E-03
DAV:   8    -0.227503444354E+03    0.54756E-06   -0.53693E-06 23560   0.201E-02
  17 F= -.22750344E+03 E0= -.22750281E+03  d E =-.125938E-02
 Finite differences progress:
  Degree of freedom:   8/ 12
  Displacement:        2/  2
  Total:              16/ 24
 bond charge predicted
       N       E                     dE             d eps       ncg     rms          rms(c)
DAV:   1    -0.227503827754E+03   -0.38285E-03   -0.41713E+00 22000   0.315E+00    0.120E-01
DAV:   2    -0.227504265766E+03   -0.43801E-03   -0.77192E-03 24000   0.251E-01    0.858E-02
DAV:   3    -0.227504223511E+03    0.42255E-04   -0.11063E-03 25240   0.380E-01    0.793E-02
DAV:   4    -0.227504139514E+03    0.83997E-04   -0.15580E-03 32920   0.415E-01    0.445E-02
DAV:   5    -0.227504064314E+03    0.75200E-04   -0.49647E-04 31880   0.222E-01    0.152E-02
DAV:   6    -0.227504059353E+03    0.49613E-05   -0.53368E-05 24840   0.373E-02    0.549E-03
DAV:   7    -0.227504059309E+03    0.44194E-07   -0.79041E-06 24840   0.225E-02
  18 F= -.22750406E+03 E0= -.22750342E+03  d E =-.127355E-02
 Finite differences progress:
  Degree of freedom:   9/ 12
  Displacement:        1/  2
  Total:              17/ 24
 bond charge predicted
       N       E                     dE             d eps       ncg     rms          rms(c)
DAV:   1    -0.227504408488E+03   -0.34914E-03   -0.84541E+00 22000   0.446E+00    0.213E-01
DAV:   2    -0.227504600818E+03   -0.19233E-03   -0.12690E-02 24720   0.580E-01    0.162E-01
DAV:   3    -0.227504514080E+03    0.86737E-04   -0.48771E-03 25000   0.710E-01    0.137E-01
DAV:   4    -0.227504733997E+03   -0.21992E-03   -0.65451E-03 28160   0.822E-01    0.115E-01
DAV:   5    -0.227504078871E+03    0.65513E-03   -0.37392E-03 32760   0.601E-01    0.204E-02
DAV:   6    -0.227504084357E+03   -0.54860E-05   -0.25303E-04 23040   0.707E-02    0.122E-02
DAV:   7    -0.227504081572E+03    0.27855E-05   -0.33835E-05 24000   0.351E-02    0.665E-03
DAV:   8    -0.227504081358E+03    0.21342E-06   -0.60168E-06 22640   0.180E-02
  19 F= -.22750408E+03 E0= -.22750347E+03  d E =-.122444E-02
 Finite differences progress:
  Degree of freedom:   9/ 12
  Displacement:        2/  2
  Total:              18/ 24
 bond charge predicted
       N       E                     dE             d eps       ncg     rms          rms(c)
DAV:   1    -0.227504490400E+03   -0.40883E-03   -0.22153E+00 22000   0.230E+00    0.133E-01
DAV:   2    -0.227504667187E+03   -0.17679E-03   -0.58245E-03 24000   0.256E-01    0.879E-02
DAV:   3    -0.227504647650E+03    0.19536E-04   -0.12870E-03 24920   0.404E-01    0.867E-02
DAV:   4    -0.227504562212E+03    0.85439E-04   -0.12684E-03 25120   0.391E-01    0.430E-02
DAV:   5    -0.227504487624E+03    0.74587E-04   -0.70574E-04 32920   0.252E-01    0.104E-02
DAV:   6    -0.227504487749E+03   -0.12477E-06   -0.67738E-05 23920   0.502E-02    0.814E-03
DAV:   7    -0.227504487574E+03    0.17449E-06   -0.15475E-05 23880   0.258E-02    0.470E-03
DAV:   8    -0.227504487090E+03    0.48456E-06   -0.25790E-06 19000   0.137E-02
  20 F= -.22750449E+03 E0= -.22750386E+03  d E =-.124960E-02
 Finite differences progress:
  Degree of freedom:  10/ 12
  Displacement:        1/  2
  Total:              19/ 24
 bond charge predicted
       N       E                     dE             d eps       ncg     rms          rms(c)
DAV:   1    -0.227504879805E+03   -0.39223E-03   -0.48357E-01 22040   0.636E-01    0.181E-01
DAV:   2    -0.227504718693E+03    0.16111E-03   -0.40815E-03 24000   0.358E-01    0.104E-01
DAV:   3    -0.227504669417E+03    0.49276E-04   -0.14619E-03 24600   0.536E-01    0.104E-01
DAV:   4    -0.227504483227E+03    0.18619E-03   -0.60194E-04 24800   0.276E-01    0.104E-02
DAV:   5    -0.227504498826E+03   -0.15599E-04   -0.18519E-04 32240   0.785E-02    0.131E-02
DAV:   6    -0.227504495648E+03    0.31786E-05   -0.48861E-05 24800   0.635E-02    0.870E-03
DAV:   7    -0.227504494272E+03    0.13758E-05   -0.10883E-05 23680   0.296E-02    0.494E-03
DAV:   8    -0.227504493992E+03    0.27970E-06   -0.53800E-06 23040   0.160E-02
  21 F= -.22750449E+03 E0= -.22750387E+03  d E =-.124985E-02
 Finite differences progress:
  Degree of freedom:  10/ 12
  Displacement:        2/  2
  Total:              20/ 24
 bond charge predicted
       N       E                     dE             d eps       ncg     rms          rms(c)
DAV:   1    -0.227504689651E+03   -0.19538E-03   -0.24196E-01 22040   0.448E-01    0.127E-01
DAV:   2    -0.227504616702E+03    0.72948E-04   -0.20847E-03 24000   0.250E-01    0.733E-02
DAV:   3    -0.227504594118E+03    0.22585E-04   -0.72682E-04 24600   0.376E-01    0.736E-02
DAV:   4    -0.227504503251E+03    0.90867E-04   -0.31919E-04 25120   0.200E-01    0.974E-03
DAV:   5    -0.227504509648E+03   -0.63970E-05   -0.12068E-04 32560   0.781E-02    0.941E-03
DAV:   6    -0.227504507296E+03    0.23516E-05   -0.27295E-05 25560   0.446E-02    0.578E-03
DAV:   7    -0.227504506817E+03    0.47949E-06   -0.49259E-06 23280   0.179E-02
  22 F= -.22750451E+03 E0= -.22750388E+03  d E =-.124961E-02
 Finite differences progress:
  Degree of freedom:  11/ 12
  Displacement:        1/  2
  Total:              21/ 24
 bond charge predicted
       N       E                     dE             d eps       ncg     rms          rms(c)
DAV:   1    -0.227504850375E+03   -0.34308E-03   -0.48336E-01 22080   0.637E-01    0.181E-01
DAV:   2    -0.227504698402E+03    0.15197E-03   -0.42155E-03 24000   0.359E-01    0.104E-01
DAV:   3    -0.227504650976E+03    0.47426E-04   -0.14941E-03 24720   0.539E-01    0.105E-01
DAV:   4    -0.227504468075E+03    0.18290E-03   -0.65420E-04 25320   0.285E-01    0.150E-02
DAV:   5    -0.227504479207E+03   -0.11132E-04   -0.25353E-04 32600   0.117E-01    0.131E-02
DAV:   6    -0.227504474806E+03    0.44012E-05   -0.55934E-05 26040   0.623E-02    0.811E-03
DAV:   7    -0.227504473945E+03    0.86064E-06   -0.10251E-05 23200   0.257E-02    0.447E-03
DAV:   8    -0.227504473817E+03    0.12833E-06   -0.43423E-06 22840   0.158E-02
  23 F= -.22750447E+03 E0= -.22750385E+03  d E =-.124938E-02
 Finite differences progress:
  Degree of freedom:  11/ 12
  Displacement:        2/  2
  Total:              22/ 24
 bond charge predicted
       N       E                     dE             d eps       ncg     rms          rms(c)
DAV:   1    -0.227504253452E+03    0.22049E-03   -0.24196E-01 22000   0.438E-01    0.113E-01
DAV:   2    -0.227504243570E+03    0.98812E-05   -0.20014E-03 24000   0.209E-01    0.665E-02
DAV:   3    -0.227504243991E+03   -0.42033E-06   -0.65889E-04 24920   0.344E-01    0.676E-02
DAV:   4    -0.227504220328E+03    0.23663E-04   -0.85968E-04 25600   0.313E-01    0.376E-02
DAV:   5    -0.227504153971E+03    0.66357E-04   -0.41321E-04 30600   0.200E-01    0.580E-03
DAV:   6    -0.227504156231E+03   -0.22608E-05   -0.38534E-05 24120   0.290E-02    0.646E-03
DAV:   7    -0.227504155832E+03    0.39919E-06   -0.61735E-06 23760   0.199E-02
  24 F= -.22750416E+03 E0= -.22750357E+03  d E =-.116933E-02
 Finite differences progress:
  Degree of freedom:  12/ 12
  Displacement:        1/  2
  Total:              23/ 24
 bond charge predicted
       N       E                     dE             d eps       ncg     rms          rms(c)
DAV:   1    -0.227504248747E+03   -0.92516E-04   -0.48779E-01 22040   0.608E-01    0.134E-01
DAV:   2    -0.227504363536E+03   -0.11479E-03   -0.34196E-03 24040   0.186E-01    0.811E-02
DAV:   3    -0.227504444536E+03   -0.81000E-04   -0.11444E-03 24480   0.416E-01    0.841E-02
DAV:   4    -0.227504384470E+03    0.60066E-04   -0.16669E-03 25640   0.437E-01    0.457E-02
DAV:   5    -0.227504285821E+03    0.98649E-04   -0.54265E-04 29800   0.237E-01    0.640E-03
DAV:   6    -0.227504290309E+03   -0.44875E-05   -0.60633E-05 23000   0.343E-02    0.748E-03
DAV:   7    -0.227504289788E+03    0.52043E-06   -0.87586E-06 24040   0.234E-02
  25 F= -.22750429E+03 E0= -.22750363E+03  d E =-.131412E-02
 Finite differences progress:
  Degree of freedom:  12/ 12
  Displacement:        2/  2
  Total:              24/ 24
 Finite differences POTIM=  2.000000000000000E-002
 writing wavefunctions
