<?xml version="1.0" encoding="ISO-8859-1"?>
<modeling>
 <generator>
  <i name="program" type="string">vasp </i>
  <i name="version" type="string">5.4.1  </i>
  <i name="subversion" type="string">05Feb16 (build Nov 22 2018 20:17:51) complex                          parallel </i>
  <i name="platform" type="string">IFC91_ompi </i>
  <i name="date" type="string">2018 11 26 </i>
  <i name="time" type="string">18:17:05 </i>
 </generator>
 <incar>
  <i type="string" name="SYSTEM">Pt H20</i>
  <i type="string" name="PREC">normal</i>
  <i type="string" name="ALGO">Fast</i>
  <i type="int" name="NELM">   400</i>
  <i type="int" name="IBRION">     3</i>
  <i name="EDIFF">      0.00001000</i>
  <i name="EDIFFG">     -0.02000000</i>
  <i type="int" name="NSW">   500</i>
  <i type="int" name="ISIF">     2</i>
  <i name="ENCUT">    500.00000000</i>
  <i name="POTIM">      0.00000000</i>
  <i type="string" name="LREAL">Auto</i>
  <i type="int" name="ISMEAR">     0</i>
  <i name="SIGMA">      0.01000000</i>
  <v type="int" name="KPOINT_BSE">    -1     0     0     0</v>
  <i type="int" name="NELM">   400</i>
  <i type="logical" name="LDIPOL"> T  </i>
  <i type="int" name="IDIPOL">     3</i>
 </incar>
 <kpoints>
  <generation param="Gamma">
   <v type="int" name="divisions">       8        8        1 </v>
   <v name="usershift">      0.00000000       0.00000000       0.00000000 </v>
   <v name="genvec1">      0.12500000       0.00000000       0.00000000 </v>
   <v name="genvec2">      0.00000000       0.12500000       0.00000000 </v>
   <v name="genvec3">      0.00000000       0.00000000       1.00000000 </v>
   <v name="shift">      0.00000000       0.00000000       0.00000000 </v>
  </generation>
  <varray name="kpointlist" >
   <v>       0.00000000       0.00000000       0.00000000 </v>
   <v>       0.12500000       0.00000000       0.00000000 </v>
   <v>       0.25000000       0.00000000       0.00000000 </v>
   <v>       0.37500000       0.00000000       0.00000000 </v>
   <v>       0.50000000       0.00000000       0.00000000 </v>
   <v>       0.00000000       0.12500000       0.00000000 </v>
   <v>       0.12500000       0.12500000       0.00000000 </v>
   <v>       0.25000000       0.12500000       0.00000000 </v>
   <v>       0.37500000       0.12500000       0.00000000 </v>
   <v>       0.50000000       0.12500000       0.00000000 </v>
   <v>       0.00000000       0.25000000       0.00000000 </v>
   <v>       0.12500000       0.25000000       0.00000000 </v>
   <v>       0.25000000       0.25000000       0.00000000 </v>
   <v>       0.37500000       0.25000000       0.00000000 </v>
   <v>       0.50000000       0.25000000       0.00000000 </v>
   <v>       0.00000000       0.37500000       0.00000000 </v>
   <v>       0.12500000       0.37500000       0.00000000 </v>
   <v>       0.25000000       0.37500000       0.00000000 </v>
   <v>       0.37500000       0.37500000       0.00000000 </v>
   <v>       0.50000000       0.37500000       0.00000000 </v>
   <v>       0.00000000       0.50000000       0.00000000 </v>
   <v>       0.12500000       0.50000000       0.00000000 </v>
   <v>       0.25000000       0.50000000       0.00000000 </v>
   <v>       0.37500000       0.50000000       0.00000000 </v>
   <v>       0.50000000       0.50000000       0.00000000 </v>
  </varray>
  <varray name="weights" >
   <v>       0.01562500 </v>
   <v>       0.03125000 </v>
   <v>       0.03125000 </v>
   <v>       0.03125000 </v>
   <v>       0.01562500 </v>
   <v>       0.03125000 </v>
   <v>       0.06250000 </v>
   <v>       0.06250000 </v>
   <v>       0.06250000 </v>
   <v>       0.03125000 </v>
   <v>       0.03125000 </v>
   <v>       0.06250000 </v>
   <v>       0.06250000 </v>
   <v>       0.06250000 </v>
   <v>       0.03125000 </v>
   <v>       0.03125000 </v>
   <v>       0.06250000 </v>
   <v>       0.06250000 </v>
   <v>       0.06250000 </v>
   <v>       0.03125000 </v>
   <v>       0.01562500 </v>
   <v>       0.03125000 </v>
   <v>       0.03125000 </v>
   <v>       0.03125000 </v>
   <v>       0.01562500 </v>
  </varray>
 </kpoints>
 <parameters>
  <separator name="general" >
   <i type="string" name="SYSTEM">Pt H20</i>
   <i type="logical" name="LCOMPAT"> F  </i>
  </separator>
  <separator name="electronic" >
   <i type="string" name="PREC">normal</i>
   <i name="ENMAX">    500.00000000</i>
   <i name="ENAUG">    416.23000000</i>
   <i name="EDIFF">      0.00001000</i>
   <i type="int" name="IALGO">    68</i>
   <i type="int" name="IWAVPR">    11</i>
   <i type="int" name="NBANDS">   200</i>
   <i name="NELECT">    330.00000000</i>
   <i type="int" name="TURBO">     0</i>
   <i type="int" name="IRESTART">     0</i>
   <i type="int" name="NREBOOT">     0</i>
   <i type="int" name="NMIN">     0</i>
   <i name="EREF">      0.00000000</i>
   <separator name="electronic smearing" >
    <i type="int" name="ISMEAR">     0</i>
    <i name="SIGMA">      0.01000000</i>
    <i name="KSPACING">      0.50000000</i>
    <i type="logical" name="KGAMMA"> T  </i>
   </separator>
   <separator name="electronic projectors" >
    <i type="logical" name="LREAL"> T  </i>
    <v name="ROPT">     -0.00050000</v>
    <i type="int" name="LMAXPAW">  -100</i>
    <i type="int" name="LMAXMIX">     2</i>
    <i type="logical" name="NLSPLINE"> F  </i>
   </separator>
   <separator name="electronic startup" >
    <i type="int" name="ISTART">     0</i>
    <i type="int" name="ICHARG">     2</i>
    <i type="int" name="INIWAV">     1</i>
   </separator>
   <separator name="electronic spin" >
    <i type="int" name="ISPIN">     1</i>
    <i type="logical" name="LNONCOLLINEAR"> F  </i>
    <v name="MAGMOM">      1.00000000      1.00000000      1.00000000      1.00000000      1.00000000      1.00000000      1.00000000      1.00000000      1.00000000      1.00000000      1.00000000      1.00000000      1.00000000      1.00000000      1.00000000      1.00000000      1.00000000      1.00000000      1.00000000      1.00000000
      1.00000000      1.00000000      1.00000000      1.00000000      1.00000000      1.00000000      1.00000000      1.00000000      1.00000000      1.00000000      1.00000000      1.00000000      1.00000000</v>
    <i name="NUPDOWN">     -1.00000000</i>
    <i type="logical" name="LSORBIT"> F  </i>
    <v name="SAXIS">      0.00000000      0.00000000      1.00000000</v>
    <i type="logical" name="LSPIRAL"> F  </i>
    <v name="QSPIRAL">      0.00000000      0.00000000      0.00000000</v>
    <i type="logical" name="LZEROZ"> F  </i>
   </separator>
   <separator name="electronic exchange-correlation" >
    <i type="logical" name="LASPH"> F  </i>
    <i type="logical" name="LMETAGGA"> F  </i>
   </separator>
   <separator name="electronic convergence" >
    <i type="int" name="NELM">   400</i>
    <i type="int" name="NELMDL">    -5</i>
    <i type="int" name="NELMIN">     2</i>
    <i name="ENINI">    500.00000000</i>
    <separator name="electronic convergence detail" >
     <i type="logical" name="LDIAG"> T  </i>
     <i type="logical" name="LSUBROT"> F  </i>
     <i name="WEIMIN">      0.00100000</i>
     <i name="EBREAK">      0.00000001</i>
     <i name="DEPER">      0.30000000</i>
     <i type="int" name="NRMM">     4</i>
     <i name="TIME">      0.40000000</i>
    </separator>
   </separator>
   <separator name="electronic mixer" >
    <i name="AMIX">      0.40000000</i>
    <i name="BMIX">      1.00000000</i>
    <i name="AMIN">      0.10000000</i>
    <i name="AMIX_MAG">      1.60000000</i>
    <i name="BMIX_MAG">      1.00000000</i>
    <separator name="electronic mixer details" >
     <i type="int" name="IMIX">     4</i>
     <i type="logical" name="MIXFIRST"> F  </i>
     <i type="int" name="MAXMIX">   -45</i>
     <i name="WC">    100.00000000</i>
     <i type="int" name="INIMIX">     1</i>
     <i type="int" name="MIXPRE">     1</i>
     <i type="int" name="MREMOVE">     5</i>
    </separator>
   </separator>
   <separator name="electronic dipolcorrection" >
    <i type="logical" name="LDIPOL"> T  </i>
    <i type="logical" name="LMONO"> F  </i>
    <i type="int" name="IDIPOL">     3</i>
    <i name="EPSILON">      1.00000000</i>
    <v name="DIPOL">   -100.00000000   -100.00000000   -100.00000000</v>
    <i name="EFIELD">      0.00000000</i>
   </separator>
  </separator>
  <separator name="grids" >
   <i type="int" name="NGX">    48</i>
   <i type="int" name="NGY">    48</i>
   <i type="int" name="NGZ">   140</i>
   <i type="int" name="NGXF">    96</i>
   <i type="int" name="NGYF">    96</i>
   <i type="int" name="NGZF">   280</i>
   <i type="logical" name="ADDGRID"> F  </i>
  </separator>
  <separator name="ionic" >
   <i type="int" name="NSW">   500</i>
   <i type="int" name="IBRION">     3</i>
   <i type="int" name="ISIF">     2</i>
   <i name="PSTRESS">      0.00000000</i>
   <i name="EDIFFG">     -0.02000000</i>
   <i type="int" name="NFREE">     0</i>
   <i name="POTIM">      0.00000000</i>
   <i name="SMASS">     -3.00000000</i>
   <i name="SCALEE">      1.00000000</i>
  </separator>
  <separator name="ionic md" >
   <i name="TEBEG">      0.00010000</i>
   <i name="TEEND">      0.00010000</i>
   <i type="int" name="NBLOCK">     1</i>
   <i type="int" name="KBLOCK">   500</i>
   <i type="int" name="NPACO">   256</i>
   <i name="APACO">     16.00000000</i>
  </separator>
  <separator name="symmetry" >
   <i type="int" name="ISYM">     2</i>
   <i name="SYMPREC">      0.00001000</i>
  </separator>
  <separator name="dos" >
   <i type="logical" name="LORBIT"> F  </i>
   <v name="RWIGS">     -1.00000000</v>
   <i type="int" name="NEDOS">   301</i>
   <i name="EMIN">     10.00000000</i>
   <i name="EMAX">    -10.00000000</i>
   <i name="EFERMI">      0.00000000</i>
  </separator>
  <separator name="writing" >
   <i type="int" name="NWRITE">     2</i>
   <i type="logical" name="LWAVE"> T  </i>
   <i type="logical" name="LCHARG"> T  </i>
   <i type="logical" name="LPARD"> F  </i>
   <i type="logical" name="LVTOT"> F  </i>
   <i type="logical" name="LVHAR"> F  </i>
   <i type="logical" name="LELF"> F  </i>
   <i type="logical" name="LOPTICS"> F  </i>
   <v name="STM">      0.00000000      0.00000000      0.00000000      0.00000000      0.00000000      0.00000000      0.00000000</v>
  </separator>
  <separator name="performance" >
   <i type="int" name="NPAR">     8</i>
   <i type="int" name="NSIM">     4</i>
   <i type="int" name="NBLK">    -1</i>
   <i type="logical" name="LPLANE"> T  </i>
   <i type="logical" name="LSCALAPACK"> T  </i>
   <i type="logical" name="LSCAAWARE"> F  </i>
   <i type="logical" name="LSCALU"> F  </i>
   <i type="logical" name="LASYNC"> F  </i>
   <i type="logical" name="LORBITALREAL"> F  </i>
  </separator>
  <separator name="miscellaneous" >
   <i type="int" name="IDIOT">     3</i>
   <i type="logical" name="LMUSIC"> F  </i>
   <v name="POMASS">    106.42000000</v>
   <v name="DARWINR">      0.00000000</v>
   <v name="DARWINV">      1.00000000</v>
   <i type="logical" name="LCORR"> T  </i>
  </separator>
  <i type="logical" name="GGA_COMPAT"> T  </i>
  <i type="logical" name="LBERRY"> F  </i>
  <i type="int" name="ICORELEVEL">     0</i>
  <i type="logical" name="LDAU"> F  </i>
  <i type="int" name="I_CONSTRAINED_M">     0</i>
  <separator name="electronic exchange-correlation" >
   <i type="string" name="GGA">--</i>
   <i type="int" name="VOSKOWN">     0</i>
   <i type="logical" name="LHFCALC"> F  </i>
   <i type="string" name="PRECFOCK"></i>
   <i type="logical" name="LSYMGRAD"> F  </i>
   <i type="logical" name="LHFONE"> F  </i>
   <i type="logical" name="LRHFCALC"> F  </i>
   <i type="logical" name="LTHOMAS"> F  </i>
   <i type="logical" name="LMODELHF"> F  </i>
   <i name="ENCUT4O">     -1.00000000</i>
   <i type="int" name="EXXOEP">     0</i>
   <i type="int" name="FOURORBIT">     0</i>
   <i name="AEXX">      0.00000000</i>
   <i name="HFALPHA">      0.00000000</i>
   <i name="MCALPHA">      0.00000000</i>
   <i name="ALDAX">      1.00000000</i>
   <i name="AGGAX">      1.00000000</i>
   <i name="ALDAC">      1.00000000</i>
   <i name="AGGAC">      1.00000000</i>
   <i type="int" name="NKREDX">     1</i>
   <i type="int" name="NKREDY">     1</i>
   <i type="int" name="NKREDZ">     1</i>
   <i type="logical" name="SHIFTRED"> F  </i>
   <i type="logical" name="ODDONLY"> F  </i>
   <i type="logical" name="EVENONLY"> F  </i>
   <i type="int" name="LMAXFOCK">     0</i>
   <i type="int" name="NMAXFOCKAE">     0</i>
   <i type="logical" name="LFOCKAEDFT"> F  </i>
   <i name="HFSCREEN">      0.00000000</i>
   <i name="HFSCREENC">      0.00000000</i>
   <i type="int" name="NBANDSGWLOW">     0</i>
  </separator>
  <separator name="vdW DFT" >
   <i type="logical" name="LUSE_VDW"> F  </i>
   <i name="Zab_VDW">     -0.84910000</i>
   <i name="PARAM1">      0.12340000</i>
   <i name="PARAM2">      1.00000000</i>
   <i name="PARAM3">      0.00000000</i>
  </separator>
  <separator name="model GW" >
   <i type="int" name="MODEL_GW">     0</i>
   <i name="MODEL_EPS0">     27.24113349</i>
   <i name="MODEL_ALPHA">      1.00000000</i>
  </separator>
  <separator name="linear response parameters" >
   <i type="logical" name="LEPSILON"> F  </i>
   <i type="logical" name="LRPA"> F  </i>
   <i type="logical" name="LNABLA"> F  </i>
   <i type="logical" name="LVEL"> F  </i>
   <i type="int" name="KINTER">     0</i>
   <i name="CSHIFT">      0.10000000</i>
   <i name="OMEGAMAX">     -1.00000000</i>
   <i name="DEG_THRESHOLD">      0.00200000</i>
  </separator>
  <separator name="orbital magnetization" >
   <i type="logical" name="NUCIND"> F  </i>
   <v name="MAGPOS">      0.00000000      0.00000000      0.00000000</v>
   <i type="logical" name="LNICSALL"> T  </i>
   <i type="logical" name="ORBITALMAG"> F  </i>
   <i type="logical" name="LMAGBLOCH"> F  </i>
   <i type="logical" name="LCHIMAG"> F  </i>
   <i type="logical" name="LGAUGE"> T  </i>
   <i type="int" name="MAGATOM">     0</i>
   <v name="MAGDIPOL">      0.00000000      0.00000000      0.00000000</v>
   <v name="AVECCONST">      0.00000000      0.00000000      0.00000000</v>
  </separator>
  <separator name="response functions" >
   <i type="logical" name="LADDER"> F  </i>
   <i type="logical" name="LFXC"> F  </i>
   <i type="logical" name="LHARTREE"> T  </i>
   <i type="int" name="IBSE">     0</i>
   <v type="int" name="KPOINT">    -1     0     0     0</v>
   <i type="logical" name="LTCTE"> F  </i>
   <i type="logical" name="LTETE"> F  </i>
   <i type="logical" name="LTRIPLET"> F  </i>
   <i type="logical" name="LFXCEPS"> F  </i>
   <i type="logical" name="LFXHEG"> F  </i>
   <i type="int" name="NATURALO">     0</i>
   <i type="logical" name="L2ORDER"> F  </i>
   <i type="logical" name="LUSEW"> F  </i>
   <i name="ENCUTGW">     -2.00000000</i>
   <i name="ENCUTGWSOFT">     -2.00000000</i>
   <i name="ENCUTLF">     -1.00000000</i>
   <i type="int" name="LMAXMP2">    -1</i>
   <i name="SCISSOR">      0.00000000</i>
   <i type="int" name="NOMEGA">     0</i>
   <i type="int" name="NOMEGAR">     0</i>
   <i type="int" name="NBANDSGW">    -1</i>
   <i type="int" name="NBANDSO">    -1</i>
   <i type="int" name="NBANDSV">    -1</i>
   <i type="int" name="NELM">   400</i>
   <i type="int" name="NELMHF">     1</i>
   <i type="int" name="DIM">     3</i>
   <i type="int" name="ANTIRES">     0</i>
   <i name="OMEGAMAX">    -30.00000000</i>
   <i name="OMEGAMIN">    -30.00000000</i>
   <i name="OMEGATL">   -200.00000000</i>
   <i type="int" name="OMEGAGRID">     0</i>
   <i name="CSHIFT">     -0.10000000</i>
   <i type="logical" name="SELFENERGY"> F  </i>
   <i type="logical" name="LSPECTRAL"> F  </i>
   <i type="logical" name="LSPECTRALGW"> F  </i>
   <i type="logical" name="LSINGLES"> F  </i>
   <i type="logical" name="LFERMIGW"> F  </i>
   <i type="logical" name="ODDONLYGW"> F  </i>
   <i type="logical" name="EVENONLYGW"> F  </i>
   <i type="int" name="NKREDLFX">     1</i>
   <i type="int" name="NKREDLFY">     1</i>
   <i type="int" name="NKREDLFZ">     1</i>
   <i type="int" name="MAXMEM">  1800</i>
   <i type="int" name="TELESCOPE">     0</i>
   <i type="int" name="TAUPAR">     1</i>
   <i type="int" name="OMEGAPAR">    -1</i>
   <i name="LAMBDA">      1.00000000</i>
  </separator>
  <separator name="External order field" >
   <i name="OFIELD_KAPPA">      0.00000000</i>
   <v name="OFIELD_K">      0.00000000      0.00000000      0.00000000</v>
   <i name="OFIELD_Q6_NEAR">      0.00000000</i>
   <i name="OFIELD_Q6_FAR">      0.00000000</i>
   <i name="OFIELD_A">      0.00000000</i>
  </separator>
 </parameters>
 <atominfo>
  <atoms>      33 </atoms>
  <types>       1 </types>
  <array name="atoms" >
   <dimension dim="1">ion</dimension>
   <field type="string">element</field>
   <field type="int">atomtype</field>
   <set>
    <rc><c>Pd</c><c>   1</c></rc>
    <rc><c>Pd</c><c>   1</c></rc>
    <rc><c>Pd</c><c>   1</c></rc>
    <rc><c>Pd</c><c>   1</c></rc>
    <rc><c>Pd</c><c>   1</c></rc>
    <rc><c>Pd</c><c>   1</c></rc>
    <rc><c>Pd</c><c>   1</c></rc>
    <rc><c>Pd</c><c>   1</c></rc>
    <rc><c>Pd</c><c>   1</c></rc>
    <rc><c>Pd</c><c>   1</c></rc>
    <rc><c>Pd</c><c>   1</c></rc>
    <rc><c>Pd</c><c>   1</c></rc>
    <rc><c>Pd</c><c>   1</c></rc>
    <rc><c>Pd</c><c>   1</c></rc>
    <rc><c>Pd</c><c>   1</c></rc>
    <rc><c>Pd</c><c>   1</c></rc>
    <rc><c>Pd</c><c>   1</c></rc>
    <rc><c>Pd</c><c>   1</c></rc>
    <rc><c>Pd</c><c>   1</c></rc>
    <rc><c>Pd</c><c>   1</c></rc>
    <rc><c>Pd</c><c>   1</c></rc>
    <rc><c>Pd</c><c>   1</c></rc>
    <rc><c>Pd</c><c>   1</c></rc>
    <rc><c>Pd</c><c>   1</c></rc>
    <rc><c>Pd</c><c>   1</c></rc>
    <rc><c>Pd</c><c>   1</c></rc>
    <rc><c>Pd</c><c>   1</c></rc>
    <rc><c>Pd</c><c>   1</c></rc>
    <rc><c>Pd</c><c>   1</c></rc>
    <rc><c>Pd</c><c>   1</c></rc>
    <rc><c>Pd</c><c>   1</c></rc>
    <rc><c>Pd</c><c>   1</c></rc>
    <rc><c>Pd</c><c>   1</c></rc>
   </set>
  </array>
  <array name="atomtypes" >
   <dimension dim="1">type</dimension>
   <field type="int">atomspertype</field>
   <field type="string">element</field>
   <field>mass</field>
   <field>valence</field>
   <field type="string">pseudopotential</field>
   <set>
    <rc><c>  33</c><c>Pd</c><c>    106.42000000</c><c>     10.00000000</c><c> PAW_GGA Pd 05Jan2001                   </c></rc>
   </set>
  </array>
 </atominfo>
 <structure name="initialpos" >
  <crystal>
   <varray name="basis" >
    <v>       7.91200018       0.00000000       0.00000000 </v>
    <v>       0.00000000       7.91200018       0.00000000 </v>
    <v>       0.00000000       0.00000000      23.93400002 </v>
   </varray>
   <i name="volume">   1498.26234176 </i>
   <varray name="rec_basis" >
    <v>       0.12639029       0.00000000       0.00000000 </v>
    <v>       0.00000000       0.12639029       0.00000000 </v>
    <v>       0.00000000       0.00000000       0.04178157 </v>
   </varray>
  </crystal>
  <varray name="positions" >
   <v>       0.00000000       0.25000000       0.00000000 </v>
   <v>       0.25000000       0.00000000       0.00000000 </v>
   <v>       0.50000000       0.25000000       0.00000000 </v>
   <v>       0.75000000       0.00000000       0.00000000 </v>
   <v>       0.00000000       0.75000000       0.00000000 </v>
   <v>       0.25000000       0.50000000       0.00000000 </v>
   <v>       0.50000000       0.75000000       0.00000000 </v>
   <v>       0.75000000       0.50000000       0.00000000 </v>
   <v>       0.00000000       0.00000000       0.08264000 </v>
   <v>       0.25000000       0.25000000       0.08264000 </v>
   <v>       0.50000000       0.00000000       0.08264000 </v>
   <v>       0.75000000       0.25000000       0.08264000 </v>
   <v>       0.00000000       0.50000000       0.08264000 </v>
   <v>       0.25000000       0.75000000       0.08264000 </v>
   <v>       0.50000000       0.50000000       0.08264000 </v>
   <v>       0.75000000       0.75000000       0.08264000 </v>
   <v>       0.00000000       0.25000000       0.16423935 </v>
   <v>       0.24940491       0.00024464       0.16437897 </v>
   <v>       0.50000000       0.25000000       0.16512514 </v>
   <v>       0.75059509       0.00024464       0.16437897 </v>
   <v>       0.00000000       0.75000000       0.16449536 </v>
   <v>       0.24940491       0.49975536       0.16437897 </v>
   <v>       0.50000000       0.75000000       0.16547243 </v>
   <v>       0.75059509       0.49975536       0.16437897 </v>
   <v>       0.00000000       0.00104811       0.24628953 </v>
   <v>       0.24516792       0.25000000       0.24621497 </v>
   <v>       0.50000000       0.00294271       0.24598717 </v>
   <v>       0.75483208       0.25000000       0.24621497 </v>
   <v>       0.00000000       0.49895189       0.24628953 </v>
   <v>       0.24327332       0.75000000       0.24606173 </v>
   <v>       0.75672668       0.75000000       0.24606173 </v>
   <v>       0.50000000       0.66947277       0.29311740 </v>
   <v>       0.50000000       0.41091784       0.26962686 </v>
  </varray>
  <varray name="selective"  type="logical" >
   <v type="logical" >  F  F  F </v>
   <v type="logical" >  F  F  F </v>
   <v type="logical" >  F  F  F </v>
   <v type="logical" >  F  F  F </v>
   <v type="logical" >  F  F  F </v>
   <v type="logical" >  F  F  F </v>
   <v type="logical" >  F  F  F </v>
   <v type="logical" >  F  F  F </v>
   <v type="logical" >  F  F  F </v>
   <v type="logical" >  F  F  F </v>
   <v type="logical" >  F  F  F </v>
   <v type="logical" >  F  F  F </v>
   <v type="logical" >  F  F  F </v>
   <v type="logical" >  F  F  F </v>
   <v type="logical" >  F  F  F </v>
   <v type="logical" >  F  F  F </v>
   <v type="logical" >  T  T  T </v>
   <v type="logical" >  T  T  T </v>
   <v type="logical" >  T  T  T </v>
   <v type="logical" >  T  T  T </v>
   <v type="logical" >  T  T  T </v>
   <v type="logical" >  T  T  T </v>
   <v type="logical" >  T  T  T </v>
   <v type="logical" >  T  T  T </v>
   <v type="logical" >  T  T  T </v>
   <v type="logical" >  T  T  T </v>
   <v type="logical" >  T  T  T </v>
   <v type="logical" >  T  T  T </v>
   <v type="logical" >  T  T  T </v>
   <v type="logical" >  T  T  T </v>
   <v type="logical" >  T  T  T </v>
   <v type="logical" >  T  T  T </v>
   <v type="logical" >  T  T  T </v>
  </varray>
  <nose>
   <v>      -3.00000000       0.00000000       0.00010000       0.00010000 </v>
  </nose>
 </structure>
 <calculation>
  <scstep>
   <time name="dav">   71.08   71.25</time>
   <time name="total">   71.38   71.55</time>
   <dipole>
    <v name="dipole">      0.00000000       0.00000000       0.00009925 </v>
    <i name="Tr[quadrupol]">  -3961.19022188 </i>
    <i name="Echarged">      0.00000000 </i>
    <i name="Edipol_quadrupol">      0.00000000 </i>
    <i name="Eion">      0.00000000 </i>
   </dipole>
   <energy>
    <i name="alphaZ">    987.04226296 </i>
    <i name="ewald"> 112847.79720471 </i>
    <i name="hartreedc">-140285.70031486 </i>
    <i name="XCdc">   -992.89319959 </i>
    <i name="pawpsdc">  22357.04723402 </i>
    <i name="pawaedc"> -20298.76097258 </i>
    <i name="eentropy">     -0.00171190 </i>
    <i name="bandstr">   1476.90885868 </i>
    <i name="atom">  26755.39719902 </i>
    <i name="e_fr_energy">   2846.83656045 </i>
    <i name="e_wo_entrp">   2846.83827235 </i>
    <i name="e_0_energy">   2846.83741640 </i>
   </energy>
  </scstep>
  <scstep>
   <time name="dav">   73.14   73.31</time>
   <time name="total">   73.14   73.32</time>
   <dipole>
    <v name="dipole">      0.00000000       0.00000000       0.00009925 </v>
    <i name="Tr[quadrupol]">  -3961.19022188 </i>
    <i name="Echarged">      0.00000000 </i>
    <i name="Edipol_quadrupol">      0.00000000 </i>
    <i name="Eion">      0.00000000 </i>
   </dipole>
   <energy>
    <i name="e_fr_energy">     72.80699693 </i>
    <i name="e_wo_entrp">     72.80812106 </i>
    <i name="e_0_energy">     72.80755899 </i>
   </energy>
  </scstep>
  <scstep>
   <time name="dav">   81.39   81.59</time>
   <time name="total">   81.40   81.59</time>
   <dipole>
    <v name="dipole">      0.00000000       0.00000000       0.00009925 </v>
    <i name="Tr[quadrupol]">  -3961.19022188 </i>
    <i name="Echarged">      0.00000000 </i>
    <i name="Edipol_quadrupol">      0.00000000 </i>
    <i name="Eion">      0.00000000 </i>
   </dipole>
   <energy>
    <i name="e_fr_energy">   -153.77835560 </i>
    <i name="e_wo_entrp">   -153.77466113 </i>
    <i name="e_0_energy">   -153.77650836 </i>
   </energy>
  </scstep>
  <scstep>
   <time name="dav">   82.24   82.44</time>
   <time name="total">   82.24   82.44</time>
   <dipole>
    <v name="dipole">      0.00000000       0.00000000       0.00009925 </v>
    <i name="Tr[quadrupol]">  -3961.19022188 </i>
    <i name="Echarged">      0.00000000 </i>
    <i name="Edipol_quadrupol">      0.00000000 </i>
    <i name="Eion">      0.00000000 </i>
   </dipole>
   <energy>
    <i name="e_fr_energy">   -166.08149003 </i>
    <i name="e_wo_entrp">   -166.07679799 </i>
    <i name="e_0_energy">   -166.07914401 </i>
   </energy>
  </scstep>
  <scstep>
   <time name="dav">   84.15   84.35</time>
   <time name="total">   88.42   88.63</time>
   <dipole>
    <v name="dipole">      0.00000000       0.00000000       0.00009925 </v>
    <i name="Tr[quadrupol]">  -3961.19022188 </i>
    <i name="Echarged">      0.00000000 </i>
    <i name="Edipol_quadrupol">      0.00000000 </i>
    <i name="Eion">      0.00000000 </i>
   </dipole>
   <energy>
    <i name="e_fr_energy">   -166.35790294 </i>
    <i name="e_wo_entrp">   -166.35328041 </i>
    <i name="e_0_energy">   -166.35559167 </i>
   </energy>
  </scstep>
  <scstep>
   <time name="diag">   13.31   13.34</time>
   <time name="diis">   49.25   49.37</time>
   <time name="orth">    1.90    1.90</time>
   <time name="total">   69.06   69.23</time>
   <dipole>
    <v name="dipole">      0.00000000       0.00000000      -0.64896061 </v>
    <i name="Tr[quadrupol]">  -3964.91057121 </i>
    <i name="Echarged">      0.00000000 </i>
    <i name="Edipol_quadrupol">      0.00000000 </i>
    <i name="Eion">      0.00000000 </i>
   </dipole>
   <energy>
    <i name="e_fr_energy">   -167.81991768 </i>
    <i name="e_wo_entrp">   -167.81658193 </i>
    <i name="e_0_energy">   -167.81824980 </i>
   </energy>
  </scstep>
  <scstep>
   <time name="diag">   13.39   13.42</time>
   <time name="diis">   49.04   49.16</time>
   <time name="orth">    1.89    1.89</time>
   <time name="total">   68.70   68.87</time>
   <dipole>
    <v name="dipole">      0.00000000       0.00000000       0.87397847 </v>
    <i name="Tr[quadrupol]">  -3966.68642942 </i>
    <i name="Echarged">      0.00000000 </i>
    <i name="Edipol_quadrupol">      0.00000000 </i>
    <i name="Eion">      0.00000000 </i>
   </dipole>
   <energy>
    <i name="e_fr_energy">   -177.35206884 </i>
    <i name="e_wo_entrp">   -177.35034632 </i>
    <i name="e_0_energy">   -177.35120758 </i>
   </energy>
  </scstep>
  <scstep>
   <time name="diag">   13.38   13.42</time>
   <time name="diis">   49.15   49.26</time>
   <time name="orth">    1.88    1.89</time>
   <time name="total">   68.97   69.13</time>
   <dipole>
    <v name="dipole">      0.00000000       0.00000000      -0.06043192 </v>
    <i name="Tr[quadrupol]">  -3968.29955781 </i>
    <i name="Echarged">      0.00000000 </i>
    <i name="Edipol_quadrupol">      0.00000000 </i>
    <i name="Eion">      0.00000000 </i>
   </dipole>
   <energy>
    <i name="e_fr_energy">   -166.17937707 </i>
    <i name="e_wo_entrp">   -166.17539740 </i>
    <i name="e_0_energy">   -166.17738723 </i>
   </energy>
  </scstep>
  <scstep>
   <time name="diag">   13.49   13.53</time>
   <time name="diis">   49.16   49.28</time>
   <time name="orth">    1.95    1.96</time>
   <time name="total">   69.12   69.28</time>
   <dipole>
    <v name="dipole">      0.00000000       0.00000000      -0.09378380 </v>
    <i name="Tr[quadrupol]">  -3967.29734864 </i>
    <i name="Echarged">      0.00000000 </i>
    <i name="Edipol_quadrupol">      0.00000000 </i>
    <i name="Eion">      0.00000000 </i>
   </dipole>
   <energy>
    <i name="e_fr_energy">   -161.09042748 </i>
    <i name="e_wo_entrp">   -161.08661406 </i>
    <i name="e_0_energy">   -161.08852077 </i>
   </energy>
  </scstep>
  <scstep>
   <time name="diag">   13.51   13.55</time>
   <time name="diis">   49.18   49.30</time>
   <time name="orth">    1.92    1.92</time>
   <time name="total">   69.25   69.41</time>
   <dipole>
    <v name="dipole">      0.00000000       0.00000000      -0.22515037 </v>
    <i name="Tr[quadrupol]">  -3968.17789904 </i>
    <i name="Echarged">      0.00000000 </i>
    <i name="Edipol_quadrupol">      0.00000000 </i>
    <i name="Eion">      0.00000000 </i>
   </dipole>
   <energy>
    <i name="e_fr_energy">   -160.25838697 </i>
    <i name="e_wo_entrp">   -160.25329473 </i>
    <i name="e_0_energy">   -160.25584085 </i>
   </energy>
  </scstep>
  <scstep>
   <time name="diag">   13.72   13.76</time>
   <time name="diis">   49.18   49.30</time>
   <time name="orth">    1.92    1.92</time>
   <time name="total">   69.41   69.57</time>
   <dipole>
    <v name="dipole">      0.00000000       0.00000000      -0.21736697 </v>
    <i name="Tr[quadrupol]">  -3968.21109116 </i>
    <i name="Echarged">      0.00000000 </i>
    <i name="Edipol_quadrupol">      0.00000000 </i>
    <i name="Eion">      0.00000000 </i>
   </dipole>
   <energy>
    <i name="e_fr_energy">   -159.81577816 </i>
    <i name="e_wo_entrp">   -159.81032605 </i>
    <i name="e_0_energy">   -159.81305211 </i>
   </energy>
  </scstep>
  <scstep>
   <time name="diag">   13.55   13.58</time>
   <time name="diis">   48.39   48.50</time>
   <time name="orth">    1.90    1.91</time>
   <time name="total">   68.38   68.55</time>
   <dipole>
    <v name="dipole">      0.00000000       0.00000000      -0.21858087 </v>
    <i name="Tr[quadrupol]">  -3968.38251738 </i>
    <i name="Echarged">      0.00000000 </i>
    <i name="Edipol_quadrupol">      0.00000000 </i>
    <i name="Eion">      0.00000000 </i>
   </dipole>
   <energy>
    <i name="e_fr_energy">   -159.54711116 </i>
    <i name="e_wo_entrp">   -159.54175482 </i>
    <i name="e_0_energy">   -159.54443299 </i>
   </energy>
  </scstep>
  <scstep>
   <time name="diag">   13.54   13.57</time>
   <time name="diis">   48.68   48.80</time>
   <time name="orth">    1.89    1.89</time>
   <time name="total">   68.63   68.79</time>
   <dipole>
    <v name="dipole">      0.00000000       0.00000000      -0.21090272 </v>
    <i name="Tr[quadrupol]">  -3968.68053028 </i>
    <i name="Echarged">      0.00000000 </i>
    <i name="Edipol_quadrupol">      0.00000000 </i>
    <i name="Eion">      0.00000000 </i>
   </dipole>
   <energy>
    <i name="e_fr_energy">   -159.30710225 </i>
    <i name="e_wo_entrp">   -159.30187483 </i>
    <i name="e_0_energy">   -159.30448854 </i>
   </energy>
  </scstep>
  <scstep>
   <time name="diag">   13.35   13.38</time>
   <time name="diis">   48.72   48.83</time>
   <time name="orth">    1.92    1.93</time>
   <time name="total">   68.54   68.71</time>
   <dipole>
    <v name="dipole">      0.00000000       0.00000000      -0.18566525 </v>
    <i name="Tr[quadrupol]">  -3969.25756622 </i>
    <i name="Echarged">      0.00000000 </i>
    <i name="Edipol_quadrupol">      0.00000000 </i>
    <i name="Eion">      0.00000000 </i>
   </dipole>
   <energy>
    <i name="e_fr_energy">   -159.11469723 </i>
    <i name="e_wo_entrp">   -159.10890517 </i>
    <i name="e_0_energy">   -159.11180120 </i>
   </energy>
  </scstep>
  <scstep>
   <time name="diag">   13.37   13.40</time>
   <time name="diis">   49.04   49.16</time>
   <time name="orth">    1.91    1.92</time>
   <time name="total">   68.74   68.91</time>
   <dipole>
    <v name="dipole">      0.00000000       0.00000000      -0.16561297 </v>
    <i name="Tr[quadrupol]">  -3969.92209400 </i>
    <i name="Echarged">      0.00000000 </i>
    <i name="Edipol_quadrupol">      0.00000000 </i>
    <i name="Eion">      0.00000000 </i>
   </dipole>
   <energy>
    <i name="e_fr_energy">   -159.08104323 </i>
    <i name="e_wo_entrp">   -159.07504387 </i>
    <i name="e_0_energy">   -159.07804355 </i>
   </energy>
  </scstep>
  <scstep>
   <time name="diag">   13.37   13.40</time>
   <time name="diis">   49.00   49.12</time>
   <time name="orth">    1.98    1.98</time>
   <time name="total">   68.83   69.00</time>
   <dipole>
    <v name="dipole">      0.00000000       0.00000000      -0.16627909 </v>
    <i name="Tr[quadrupol]">  -3970.21977714 </i>
    <i name="Echarged">      0.00000000 </i>
    <i name="Edipol_quadrupol">      0.00000000 </i>
    <i name="Eion">      0.00000000 </i>
   </dipole>
   <energy>
    <i name="e_fr_energy">   -159.05384467 </i>
    <i name="e_wo_entrp">   -159.04816704 </i>
    <i name="e_0_energy">   -159.05100586 </i>
   </energy>
  </scstep>
  <scstep>
   <time name="diag">   13.47   13.51</time>
   <time name="diis">   48.87   48.98</time>
   <time name="orth">    1.95    1.95</time>
   <time name="total">   68.77   68.93</time>
   <dipole>
    <v name="dipole">      0.00000000       0.00000000      -0.15269039 </v>
    <i name="Tr[quadrupol]">  -3970.57358254 </i>
    <i name="Echarged">      0.00000000 </i>
    <i name="Edipol_quadrupol">      0.00000000 </i>
    <i name="Eion">      0.00000000 </i>
   </dipole>
   <energy>
    <i name="e_fr_energy">   -159.03159376 </i>
    <i name="e_wo_entrp">   -159.02527737 </i>
    <i name="e_0_energy">   -159.02843557 </i>
   </energy>
  </scstep>
  <scstep>
   <time name="diag">   13.40   13.43</time>
   <time name="diis">   49.04   49.15</time>
   <time name="orth">    1.96    1.96</time>
   <time name="total">   69.13   69.30</time>
   <dipole>
    <v name="dipole">      0.00000000       0.00000000      -0.14884799 </v>
    <i name="Tr[quadrupol]">  -3970.82446014 </i>
    <i name="Echarged">      0.00000000 </i>
    <i name="Edipol_quadrupol">      0.00000000 </i>
    <i name="Eion">      0.00000000 </i>
   </dipole>
   <energy>
    <i name="e_fr_energy">   -159.02122410 </i>
    <i name="e_wo_entrp">   -159.01514462 </i>
    <i name="e_0_energy">   -159.01818436 </i>
   </energy>
  </scstep>
  <scstep>
   <time name="diag">   13.47   13.50</time>
   <time name="diis">   48.64   48.76</time>
   <time name="orth">    1.91    1.92</time>
   <time name="total">   68.46   68.62</time>
   <dipole>
    <v name="dipole">      0.00000000       0.00000000      -0.13741056 </v>
    <i name="Tr[quadrupol]">  -3971.01687633 </i>
    <i name="Echarged">      0.00000000 </i>
    <i name="Edipol_quadrupol">      0.00000000 </i>
    <i name="Eion">      0.00000000 </i>
   </dipole>
   <energy>
    <i name="e_fr_energy">   -159.01839625 </i>
    <i name="e_wo_entrp">   -159.01217677 </i>
    <i name="e_0_energy">   -159.01528651 </i>
   </energy>
  </scstep>
  <scstep>
   <time name="diag">   13.40   13.44</time>
   <time name="diis">   48.84   48.96</time>
   <time name="orth">    1.90    1.91</time>
   <time name="total">   68.73   68.90</time>
   <dipole>
    <v name="dipole">      0.00000000       0.00000000      -0.13400520 </v>
    <i name="Tr[quadrupol]">  -3971.20241618 </i>
    <i name="Echarged">      0.00000000 </i>
    <i name="Edipol_quadrupol">      0.00000000 </i>
    <i name="Eion">      0.00000000 </i>
   </dipole>
   <energy>
    <i name="e_fr_energy">   -159.01393748 </i>
    <i name="e_wo_entrp">   -159.00771180 </i>
    <i name="e_0_energy">   -159.01082464 </i>
   </energy>
  </scstep>
  <scstep>
   <time name="diag">   13.34   13.37</time>
   <time name="diis">   48.89   49.01</time>
   <time name="orth">    1.89    1.89</time>
   <time name="total">   68.73   68.90</time>
   <dipole>
    <v name="dipole">      0.00000000       0.00000000      -0.12888686 </v>
    <i name="Tr[quadrupol]">  -3971.32700170 </i>
    <i name="Echarged">      0.00000000 </i>
    <i name="Edipol_quadrupol">      0.00000000 </i>
    <i name="Eion">      0.00000000 </i>
   </dipole>
   <energy>
    <i name="e_fr_energy">   -159.01187318 </i>
    <i name="e_wo_entrp">   -159.00556819 </i>
    <i name="e_0_energy">   -159.00872069 </i>
   </energy>
  </scstep>
  <scstep>
   <time name="diag">   13.40   13.43</time>
   <time name="diis">   48.66   48.78</time>
   <time name="orth">    1.87    1.87</time>
   <time name="total">   68.61   68.77</time>
   <dipole>
    <v name="dipole">      0.00000000       0.00000000      -0.01891108 </v>
    <i name="Tr[quadrupol]">  -3971.65313075 </i>
    <i name="Echarged">      0.00000000 </i>
    <i name="Edipol_quadrupol">      0.00000000 </i>
    <i name="Eion">      0.00000000 </i>
   </dipole>
   <energy>
    <i name="e_fr_energy">   -159.03530550 </i>
    <i name="e_wo_entrp">   -159.02956228 </i>
    <i name="e_0_energy">   -159.03243389 </i>
   </energy>
  </scstep>
  <scstep>
   <time name="diag">   13.43   13.46</time>
   <time name="diis">   48.79   48.91</time>
   <time name="orth">    1.96    1.97</time>
   <time name="total">   68.64   68.80</time>
   <dipole>
    <v name="dipole">      0.00000000       0.00000000      -0.07812653 </v>
    <i name="Tr[quadrupol]">  -3971.71205822 </i>
    <i name="Echarged">      0.00000000 </i>
    <i name="Edipol_quadrupol">      0.00000000 </i>
    <i name="Eion">      0.00000000 </i>
   </dipole>
   <energy>
    <i name="e_fr_energy">   -159.00642891 </i>
    <i name="e_wo_entrp">   -159.00021710 </i>
    <i name="e_0_energy">   -159.00332300 </i>
   </energy>
  </scstep>
  <scstep>
   <time name="diag">   13.52   13.55</time>
   <time name="diis">   48.61   48.73</time>
   <time name="orth">    1.94    1.94</time>
   <time name="total">   68.62   68.78</time>
   <dipole>
    <v name="dipole">      0.00000000       0.00000000      -0.09611891 </v>
    <i name="Tr[quadrupol]">  -3971.81250598 </i>
    <i name="Echarged">      0.00000000 </i>
    <i name="Edipol_quadrupol">      0.00000000 </i>
    <i name="Eion">      0.00000000 </i>
   </dipole>
   <energy>
    <i name="e_fr_energy">   -159.00607867 </i>
    <i name="e_wo_entrp">   -158.99970441 </i>
    <i name="e_0_energy">   -159.00289154 </i>
   </energy>
  </scstep>
  <scstep>
   <time name="diag">   13.51   13.55</time>
   <time name="diis">   48.75   48.87</time>
   <time name="orth">    1.98    1.99</time>
   <time name="total">   68.81   68.97</time>
   <dipole>
    <v name="dipole">      0.00000000       0.00000000      -0.03906260 </v>
    <i name="Tr[quadrupol]">  -3972.01972249 </i>
    <i name="Echarged">      0.00000000 </i>
    <i name="Edipol_quadrupol">      0.00000000 </i>
    <i name="Eion">      0.00000000 </i>
   </dipole>
   <energy>
    <i name="e_fr_energy">   -159.00235440 </i>
    <i name="e_wo_entrp">   -158.99618122 </i>
    <i name="e_0_energy">   -158.99926781 </i>
   </energy>
  </scstep>
  <scstep>
   <time name="diag">   13.41   13.44</time>
   <time name="diis">   48.53   48.65</time>
   <time name="orth">    1.95    1.96</time>
   <time name="total">   68.58   68.75</time>
   <dipole>
    <v name="dipole">      0.00000000       0.00000000      -0.02563792 </v>
    <i name="Tr[quadrupol]">  -3972.14224618 </i>
    <i name="Echarged">      0.00000000 </i>
    <i name="Edipol_quadrupol">      0.00000000 </i>
    <i name="Eion">      0.00000000 </i>
   </dipole>
   <energy>
    <i name="e_fr_energy">   -159.00120083 </i>
    <i name="e_wo_entrp">   -158.99497443 </i>
    <i name="e_0_energy">   -158.99808763 </i>
   </energy>
  </scstep>
  <scstep>
   <time name="diag">   13.53   13.56</time>
   <time name="diis">   48.11   48.22</time>
   <time name="orth">    1.92    1.93</time>
   <time name="total">   68.03   68.19</time>
   <dipole>
    <v name="dipole">      0.00000000       0.00000000      -0.03867095 </v>
    <i name="Tr[quadrupol]">  -3972.26433436 </i>
    <i name="Echarged">      0.00000000 </i>
    <i name="Edipol_quadrupol">      0.00000000 </i>
    <i name="Eion">      0.00000000 </i>
   </dipole>
   <energy>
    <i name="e_fr_energy">   -159.00300501 </i>
    <i name="e_wo_entrp">   -158.99665706 </i>
    <i name="e_0_energy">   -158.99983103 </i>
   </energy>
  </scstep>
  <scstep>
   <time name="diag">   13.36   13.40</time>
   <time name="diis">   48.36   48.48</time>
   <time name="orth">    1.91    1.92</time>
   <time name="total">   68.34   68.51</time>
   <dipole>
    <v name="dipole">      0.00000000       0.00000000      -0.05272092 </v>
    <i name="Tr[quadrupol]">  -3972.36771504 </i>
    <i name="Echarged">      0.00000000 </i>
    <i name="Edipol_quadrupol">      0.00000000 </i>
    <i name="Eion">      0.00000000 </i>
   </dipole>
   <energy>
    <i name="e_fr_energy">   -159.00923651 </i>
    <i name="e_wo_entrp">   -159.00281380 </i>
    <i name="e_0_energy">   -159.00602515 </i>
   </energy>
  </scstep>
  <scstep>
   <time name="diag">   13.35   13.38</time>
   <time name="diis">   42.45   42.55</time>
   <time name="orth">    1.87    1.87</time>
   <time name="total">   62.24   62.39</time>
   <dipole>
    <v name="dipole">      0.00000000       0.00000000      -0.05079367 </v>
    <i name="Tr[quadrupol]">  -3972.38955963 </i>
    <i name="Echarged">      0.00000000 </i>
    <i name="Edipol_quadrupol">      0.00000000 </i>
    <i name="Eion">      0.00000000 </i>
   </dipole>
   <energy>
    <i name="e_fr_energy">   -159.00784385 </i>
    <i name="e_wo_entrp">   -159.00145936 </i>
    <i name="e_0_energy">   -159.00465161 </i>
   </energy>
  </scstep>
  <scstep>
   <time name="diag">   13.09   13.12</time>
   <time name="diis">   43.63   43.73</time>
   <time name="orth">    1.86    1.86</time>
   <time name="total">   63.31   63.47</time>
   <dipole>
    <v name="dipole">      0.00000000       0.00000000      -0.04784790 </v>
    <i name="Tr[quadrupol]">  -3972.38974900 </i>
    <i name="Echarged">      0.00000000 </i>
    <i name="Edipol_quadrupol">      0.00000000 </i>
    <i name="Eion">      0.00000000 </i>
   </dipole>
   <energy>
    <i name="e_fr_energy">   -159.00605238 </i>
    <i name="e_wo_entrp">   -158.99970448 </i>
    <i name="e_0_energy">   -159.00287843 </i>
   </energy>
  </scstep>
  <scstep>
   <time name="diag">   12.59   12.62</time>
   <time name="diis">   47.06   47.17</time>
   <time name="orth">    1.89    1.90</time>
   <time name="total">   66.00   66.16</time>
   <dipole>
    <v name="dipole">      0.00000000       0.00000000       0.02285798 </v>
    <i name="Tr[quadrupol]">  -3964.63497523 </i>
    <i name="Echarged">      0.00000000 </i>
    <i name="Edipol_quadrupol">      0.00000000 </i>
    <i name="Eion">      0.00000000 </i>
   </dipole>
   <energy>
    <i name="e_fr_energy">   -156.77113683 </i>
    <i name="e_wo_entrp">   -156.76572741 </i>
    <i name="e_0_energy">   -156.76843212 </i>
   </energy>
  </scstep>
  <scstep>
   <time name="diag">   13.08   13.11</time>
   <time name="diis">   37.84   37.93</time>
   <time name="orth">    1.87    1.87</time>
   <time name="total">   57.54   57.68</time>
   <dipole>
    <v name="dipole">      0.00000000       0.00000000       0.02317955 </v>
    <i name="Tr[quadrupol]">  -3964.68093372 </i>
    <i name="Echarged">      0.00000000 </i>
    <i name="Edipol_quadrupol">      0.00000000 </i>
    <i name="Eion">      0.00000000 </i>
   </dipole>
   <energy>
    <i name="e_fr_energy">   -156.77188148 </i>
    <i name="e_wo_entrp">   -156.76646413 </i>
    <i name="e_0_energy">   -156.76917280 </i>
   </energy>
  </scstep>
  <scstep>
   <time name="diag">   13.18   13.21</time>
   <time name="diis">   39.45   39.54</time>
   <time name="orth">    1.89    1.89</time>
   <time name="total">   59.09   59.24</time>
   <dipole>
    <v name="dipole">      0.00000000       0.00000000       0.02869293 </v>
    <i name="Tr[quadrupol]">  -3964.72152684 </i>
    <i name="Echarged">      0.00000000 </i>
    <i name="Edipol_quadrupol">      0.00000000 </i>
    <i name="Eion">      0.00000000 </i>
   </dipole>
   <energy>
    <i name="e_fr_energy">   -156.77246579 </i>
    <i name="e_wo_entrp">   -156.76701636 </i>
    <i name="e_0_energy">   -156.76974108 </i>
   </energy>
  </scstep>
  <scstep>
   <time name="diag">   13.12   13.16</time>
   <time name="diis">   48.25   48.36</time>
   <time name="orth">    1.86    1.87</time>
   <time name="total">   67.44   67.61</time>
   <dipole>
    <v name="dipole">      0.00000000       0.00000000      -0.05449943 </v>
    <i name="Tr[quadrupol]">  -3972.35659057 </i>
    <i name="Echarged">      0.00000000 </i>
    <i name="Edipol_quadrupol">      0.00000000 </i>
    <i name="Eion">      0.00000000 </i>
   </dipole>
   <energy>
    <i name="e_fr_energy">   -159.00683703 </i>
    <i name="e_wo_entrp">   -159.00057919 </i>
    <i name="e_0_energy">   -159.00370811 </i>
   </energy>
  </scstep>
  <scstep>
   <time name="diag">   12.94   12.97</time>
   <time name="diis">   36.46   36.55</time>
   <time name="orth">    1.95    1.96</time>
   <time name="total">   55.89   56.02</time>
   <dipole>
    <v name="dipole">      0.00000000       0.00000000      -0.05266013 </v>
    <i name="Tr[quadrupol]">  -3972.36865956 </i>
    <i name="Echarged">      0.00000000 </i>
    <i name="Edipol_quadrupol">      0.00000000 </i>
    <i name="Eion">      0.00000000 </i>
   </dipole>
   <energy>
    <i name="e_fr_energy">   -159.00701371 </i>
    <i name="e_wo_entrp">   -159.00077591 </i>
    <i name="e_0_energy">   -159.00389481 </i>
   </energy>
  </scstep>
  <scstep>
   <time name="diag">   13.05   13.08</time>
   <time name="diis">   33.12   33.19</time>
   <time name="orth">    1.91    1.92</time>
   <time name="total">   52.62   52.74</time>
   <dipole>
    <v name="dipole">      0.00000000       0.00000000      -0.05142200 </v>
    <i name="Tr[quadrupol]">  -3972.39903640 </i>
    <i name="Echarged">      0.00000000 </i>
    <i name="Edipol_quadrupol">      0.00000000 </i>
    <i name="Eion">      0.00000000 </i>
   </dipole>
   <energy>
    <i name="e_fr_energy">   -159.00715229 </i>
    <i name="e_wo_entrp">   -159.00090351 </i>
    <i name="e_0_energy">   -159.00402790 </i>
   </energy>
  </scstep>
  <scstep>
   <time name="diag">   13.09   13.12</time>
   <time name="diis">   30.24   30.31</time>
   <time name="orth">    1.90    1.90</time>
   <time name="total">   49.77   49.89</time>
   <dipole>
    <v name="dipole">      0.00000000       0.00000000      -0.05141070 </v>
    <i name="Tr[quadrupol]">  -3972.42232654 </i>
    <i name="Echarged">      0.00000000 </i>
    <i name="Edipol_quadrupol">      0.00000000 </i>
    <i name="Eion">      0.00000000 </i>
   </dipole>
   <energy>
    <i name="e_fr_energy">   -159.00720817 </i>
    <i name="e_wo_entrp">   -159.00095609 </i>
    <i name="e_0_energy">   -159.00408213 </i>
   </energy>
  </scstep>
  <scstep>
   <time name="diag">   13.04   13.07</time>
   <time name="diis">   32.03   32.11</time>
   <time name="orth">    1.91    1.91</time>
   <time name="total">   51.83   51.96</time>
   <dipole>
    <v name="dipole">      0.00000000       0.00000000      -0.05027054 </v>
    <i name="Tr[quadrupol]">  -3972.47573873 </i>
    <i name="Echarged">      0.00000000 </i>
    <i name="Edipol_quadrupol">      0.00000000 </i>
    <i name="Eion">      0.00000000 </i>
   </dipole>
   <energy>
    <i name="e_fr_energy">   -159.00727003 </i>
    <i name="e_wo_entrp">   -159.00101921 </i>
    <i name="e_0_energy">   -159.00414462 </i>
   </energy>
  </scstep>
  <scstep>
   <time name="diag">   13.14   13.17</time>
   <time name="diis">   28.24   28.31</time>
   <time name="orth">    1.93    1.94</time>
   <time name="total">   43.63   43.73</time>
   <dipole>
    <v name="dipole">      0.00000000       0.00000000      -0.04981146 </v>
    <i name="Tr[quadrupol]">  -3972.49744997 </i>
    <i name="Echarged">      0.00000000 </i>
    <i name="E  <structure>
   <crystal>
    <varray name="basis" >
     <v>       7.91200018       0.00000000       0.00000000 </v>
     <v>       0.00000000       7.91200018       0.00000000 </v>
     <v>       0.00000000       0.00000000      23.93400002 </v>
    </varray>
    <i name="volume">   1498.26234176 </i>
    <varray name="rec_   <time name="diis">   25.11   25.17</time>
   <time name="orth">    1.70    1.71</time>
   <time name="total">   43.35   43.46</time>
   <dipole>
    <v name="dipole">      0.00000000       0.00000000       0.01037024 </v>
    <i name="Tr[quadrupol]">  -3966.54991779 </i>
    <i name="Echarged">      0.00000000 </i>
    <i name="E  <structure>
   <crystal>
    <varray name="basis" >
     <v>       7.91200018       0.00000000       0.00000000 </v>
     <v>       0.00000000       7.91200018       0.00000000 </v>
     <v>       0.00000000       0.00000000      23.93400002 </v>
    </varray>
    <i name="volume">   1498.26234176 </i>
    <varray name="rec_   <time name="diis">   17.84   17.89</time>
   <time name="orth">    1.42    1.42</time>
   <time name="total">   33.02   33.10</time>
   <dipole>
    <v name="dipole">      0.00000000       0.00000000       0.01105898 </v>
    <i name="Tr[quadrupol]">  -3966.56074941 </i>
    <i name="Echarged">      0.00000000 </i>
    <i name="Edipol_quadrupol">      0.00000000 </i>
    <i name="Eion">      0.00000000 </i>
   </dipole>
   <energy>
    <i name="e_fr_energy">   -157.51971003 </i>
    <i name="e_wo_entrp">   -157.51354106 </i>
    <i name="e_0_energy">   -157.51662554 </i>
   </energy>
  </scstep>
  <scstep>
   <time name="diag">    8.08    8.10</time>
   <time name="diis">   17.19   17.23</time>
   <time name="orth">    1.43    1.43</time>
   <time name="total">   29.28   29.36</time>
   <dipole>
    <v name="dipole">      0.00000000       0.00000000       0.00477891 </v>
    <i name="Tr[quadrupol]">  -3966.54640737 </i>
    <i name="Echarged">      0.00000000 </i>
    <i name="Edipol_quadrupol">      0.00000000 </i>
    <i name="Eion">      0.00000000 </i>
   </dipole>
   <energy>
    <i name="e_fr_energy">   -157.51977001 </i>
    <i name="e_wo_entrp">   -157.51359638 </i>
    <i name="e_0_energy">   -157.51668319 </i>
   </energy>
  </scstep>
  <scstep>
   <time name="diag">    8.08    8.10</time>
   <time name="diis">   15.46   15.49</time>
   <time name="orth">    1.42    1.43</time>
   <time name="total">   27.50   27.57</time>
   <dipole>
    <v name="dipole">      0.00000000       0.00000000       0.00946732 </v>
    <i name="Tr[quadrupol]">  -3966.56452665 </i>
    <i name="Echarged">      0.00000000 </i>
    <i name="Edipol_quadrupol">      0.00000000 </i>
    <i name="Eion">      0.00000000 </i>
   </dipole>
   <energy>
    <i name="e_fr_energy">   -157.51970214 </i>
    <i name="e_wo_entrp">   -157.51353228 </i>
    <i name="e_0_energy">   -157.51661721 </i>
   </energy>
  </scstep>
  <scstep>
   <time name="diag">    8.08    8.09</time>
   <time name="diis">   15.09   15.12</time>
   <time name="orth">    1.42    1.43</time>
   <time name="total">   24.86   24.92</time>
   <dipole>
    <v name="dipole">      0.00000000       0.00000000       0.01010244 </v>
    <i name="Tr[quadrupol]">  -3966.57645533 </i>
    <i name="Echarged">      0.00000000 </i>
    <i name="Edipol_quadrupol">      0.00000000 </i>
    <i name="Eion">      0.00000000 </i>
   </dipole>
   <energy>
    <i name="alphaZ">    987.55018659 </i>
    <i name="ewald"> 112954.15051880 </i>
    <i name="hartreedc">-140509.52595430 </i>
    <i name="XCdc">   -998.59017322 </i>
    <i name="pawpsdc">  22944.31995002 </i>
    <i name="pawaedc"> -20931.32409521 </i>
    <i name="eentropy">     -0.00617012 </i>
    <i name="bandstr">  -1359.49116409 </i>
    <i name="atom">  26755.39719902 </i>
    <i name="e_fr_energy">   -157.51970251 </i>
    <i name="e_wo_entrp">   -157.51353239 </i>
    <i name="e_0_energy">   -157.51661745 </i>
   </energy>
  </scstep>
  <structure>
   <crystal>
    <varray name="basis" >
     <v>       7.91200018       0.00000000       0.00000000 </v>
     <v>       0.00000000       7.91200018       0.00000000 </v>
     <v>       0.00000000       0.00000000      23.93400002 </v>
    </varray>
    <i name="volume">   1498.26234176 </i>
    <varray name="rec_basis" >
     <v>       0.12639029       0.00000000       0.00000000 </v>
     <v>       0.00000000       0.12639029       0.00000000 </v>
     <v>       0.00000000       0.00000000       0.04178157 </v>
    </varray>
   </crystal>
   <varray name="positions" >
    <v>       0.00000000       0.25000000       0.00000000 </v>
    <v>       0.25000000       0.00000000       0.00000000 </v>
    <v>       0.50000000       0.25000000       0.00000000 </v>
    <v>       0.75000000       0.00000000       0.00000000 </v>
    <v>       0.00000000       0.75000000       0.00000000 </v>
    <v>       0.25000000       0.50000000       0.00000000 </v>
    <v>       0.50000000       0.75000000       0.00000000 </v>
    <v>       0.75000000       0.50000000       0.00000000 </v>
  <energy>
   <i name="e_fr_energy">   -157.51216561 </i>
   <i name="e_wo_entrp">   -157.50909350 </i>
   <i name="e_0_energy">     -0.00614423 </i>
  </energy>
  <time name="totalsc"> 2807.82 2814.75</time>
 </calculation>
25000000       0.08264000 </v>
    <v>       0.00000000       0.50000000       0.08264000 </v>
    <v>       0.25000000       0.75000000       0.08264000 </v>
    <v>       0.50000000       0.50000000       0.08264000 </v>
    <v>       0.75000000       0.75000000       0.08264000 </v>
    <v>       0.00000000       0.25000000       0.16451263 </v>
    <v>       0.24943961       0.99985948       0.16436825 </v>
    <v>       0.500000  <energy>
   <i name="e_fr_energy">   -158.99945740 </i>
   <i name="e_wo_entrp">   -158.99632466 </i>
   <i name="e_0_energy">     -0.00626548 </i>
  </energy>
  <time name="totalsc"> 2807.42 2814.33</time>
 </calculation>
825 </v>
    <v>       0.50000000       0.75000000       0.16512917 </v>
    <v>       0.75056039       0.50014052       0.16436825 </v>
    <v>       0.00000000       0.99905727       0.24623213 </v>
    <v>       0.24337480       0.25000000       0.24608300 </v>
    <v>       0.50000000       0.99726219       0.24596910 </v>
    <v>       0.75662520       0.25000000       0.24608300 </v>
    <v>       0.00000000       0.50094273       0.24623213 </v>
    <v>       0.24516987       0.75000000       0.24611823 </v>
    <v>       0.75483013       0.75000000       0.24611823 </v>
    <v>       0.50000000       0.58894555       0.26953422 </v>
    <v>       0.50000000       0.33045892       0.29324849 </v>
   </varray>
  </structure>
  <varray name="forces" >
   <v>       0.00000000      -0.00300248       0.14512484 </v>
   <v>       0.02024624      -0.00440999       0.17083960 </v>
   <v>       0.00000000      -0.01578362       0.10957295 </v>
   <v>      -0.02024624      -0.00440999       0.17083960 </v>
   <v>       0.00000000      -0.00312146       0.11796537 </v>
   <v>      -0.02157455       0.01118898       0.14517006 </v>
   <v>       0.00000000       0.01480690       0.13367290 </v>
   <v>       0.02157455       0.01118898       0.14517006 </v>
   <v>       0.00000000       0.03184637      -0.20035018 </v>
   <v>       0.03980492       0.05650992      -0.14601932 </v>
   <v>       0.00000000      -0.00544502      -0.17290637 </v>
   <v>      -0.03980492       0.05650992      -0.14601932 </v>
   <v>       0.00000000      -0.01965160      -0.32981417 </v>
   <v>       0.03350847      -0.06374580      -0.15813930 </v>
   <v>       0.00000000      -0.01496849      -0.11533781 </v>
   <v>      -0.03350847      -0.06374580      -0.15813930 </v>
   <v>       0.00000000       0.05368845       0.10322798 </v>
   <v>       0.00026763       0.00286484      -0.07259366 </v>
   <v>       0.00000000       0.29164435       0.13626982 </v>
   <v>      -0.00026763       0.00286484      -0.07259366 </v>
   <v>       0.00000000      -0.03680018       0.02209064 </v>
   <v>       0.31503877      -0.02044651       0.21760190 </v>
   <v>       0.00000000      -0.16671000      -0.20005222 </v>
   <v>      -0.31503877      -0.02044651       0.21760190 </v>
   <v>       0.00000000      -0.00067974       0.08634394 </v>
   <v>      -1.49992761      -0.61212983      -0.82354972 </v>
   <v>       0.00000000       0.13293266       0.34544472 </v>
   <v>       1.49992761      -0.61212983      -0.82354972 </v>
   <v>       0.00000000       0.00589873       0.10534380 </v>
   <v>      -1.00481391       0.57548826      -0.18627439 </v>
   <v>       1.00481391       0.57548826      -0.18627439 </v>
   <v>       0.00000000       5.56538774      -1.59737019 </v>
   <v>       0.00000000      -5.72068235       3.01670367 </v>
  </varray>
  <varray name="stress" >
   <v>      -5.85441863       0.00000000       0.00000000 </v>
   <v>       0.00000000       0.78771496      -3.63173100 </v>
   <v>       0.00000000      -3.63173139       0.27140370 </v>
  </varray>
  <energy>
   <i name="e_fr_energy">   -157.51970251 </i>
   <i name="e_wo_entrp">   -157.51661745 </i>
   <i name="e_0_energy">     -0.00617012 </i>
  </energy>
  <time name="totalsc"> 2808.09 2815.08</time>
 </calculation>
 <calculation>
  <scstep>
   <time name="dav">   72.   <time name="dav   <time name="total">   7   <time name="total">   76.93   77.12</time>
   <dipole   <time name="total">   77.31   77.49</time>
   <dipole>
    <v name="dipole">      0.00000000       0.00000000      -0.04426773 </v>
    <i name="Tr[quadrupol]">  -3969.57447010 </i>
    <i name="Echarged">      0.00000000 </i>
    <i name="Edipol_quadrupol">      0.00000000 </i>
    <i name="Eion">      0.00000000 </i>
   </dipole>
   <energy>
    <i name="alphaZ">    984.50226853 </i>
    <i name="ewald"> 112839.35476717 </i>
    <i name="hartreedc">-140422.66647359 </i>
    <i name="XCdc">   -999.00040538 </i>
    <i name="pawpsdc">  22907.41356543 </i>
    <i name="pawaedc"> -20892.85504056 </i>
    <i name="eentropy">     -0.00628357 </i>
    <i name="bandstr">  -1331.22597039 </i>
    <i name="atom">  26755.39719902 </i>
    <i name="e_fr_energy">   -159.08637334 </i>
    <i name="e_wo_entrp">   -159.08008977 </i>
    <time name="diag">   12   <time name="diag   <time name="diis">   49   <time name="   <   <time name="orth">    1   <time name="   <   <time name="total">   6   <time name="   <time name="total">   69.60   69.77</time>
   <dipole>
    <v name="dipole">      0.00000000       0.00000000       0.18201564 </v>
    <i name="Tr[quadrupol]">  -3951.88056755 </i>
    <i name="Echarged">      0.00000000 </i>
    <i name="Edipol_quadrupol">      0.00000000 </i>
    <i name="Eion">      0.00000000 </i>
   </dipole>
   <energy>
    <i name="e_fr_energy">   -158.45515166 </i>
    <i name="e_wo_entrp">   -158.45001197 </i>
    <i name="e_0_energy">   -158.45258182    <time name="diag">   12   <time name="   <   <time name="diis">   50   <time name="   <time name="diis">   52.45    <time name="   <   <time name="total">   6   <time name="   <time name="total">   71.60   71.77</time>
   <dipole>
    <v name="dipole">      0.00000000       0.00000000      -0.02772870 </v>
    <i name="Tr[quadrupol]">  -3952.15659305 </i>
    <i name="Echarged">      0.00000000 </i>
    <i name="Edipol_quadrupol">      0.00000000 </i>
    <i name="Eion">      0.00000000 </i>
   </dipole>
   <energy>
    <i name="e_fr_energy">   -158.06521739 </i>
    <i name="e_wo_entrp">   -158.06008006 </i>
    <i name="e_0_energy">   -158.06264873    <time name="diag">   12   <time name="   <   <time name="diis">   49   <time name="   <time name="diis">   50.39    <time name="   <time name="orth">    1.89    <time name="   <time name="total">   69.71   69.88</time>
   <dipole>
    <v name="dipole">      0.00000000       0.00000000       0.06721456 </v>
    <i name="Tr[quadrupol]">  -3952.42178600 </i>
    <i name="Echarged">      0.00000000 </i>
    <i name="Edipol_quadrupol">      0.00000000 </i>
    <i name="Eion">      0.00000000 </i>
   </dipole>
   <energy>
    <i name="e_fr_energy">   -157.95871893 </i>
    <i name="e_wo_entrp">   -157.95331972 </i>
    <i name="e_0_energy">   -157.95601932    <time name="diag">   12   <time name="   <   <time name="diis">   49   <time name="   <time name="diis">   50.25    <time name="   <time name="orth">    1.86    <time name="   <time name="total">   69.65   69.82</time>
   <dipole>
    <v name="dipole">      0.00000000       0.00000000       0.03440922 </v>
    <i name="Tr[quadrupol]">  -3952.30722924 </i>
    <i name="Echarged">      0.00000000 </i>
    <i name="Edipol_quadrupol">      0.00000000 </i>
    <i name="Eion">      0.00000000 </i>
   </dipole>
   <energy>
    <i name="e_fr_energy">   -157.81988481 </i>
    <i name="e_wo_entrp">   -157.81438377 </i>
    <i name="e_0_energy">   -157.81713429    <time name="diag">   12   <time name="   <   <time name="diis">   49   <time name="   <time name="diis">   49.70   49.81</time>
   <time name="orth">    1.87    <time name="   <time name="total">   69.13   69.29</time>
   <dipole>
    <v name="dipole">      0.00000000       0.00000000       0.03471526 </v>
    <i name="Tr[quadrupol]">  -3952.32696037 </i>
    <i name="Echarged">      0.00000000 </i>
    <i name="Edipol_quadrupol">      0.00000000 </i>
    <i name="Eion">      0.00000000 </i>
   </dipole>
   <energy>
    <i name="e_fr_energy">   -157.81023929 </i>
    <i name="e_wo_entrp">   -157.80535648 </i>
    <i name="e_0_energy">   -157.80779788    <time name="diag">   12   <time name="   <   <time name="diis">   49   <time name="   <time name="diis">   49.57    <time name="   <time name="orth">    1.82    <time name="   <time name="total">   69.02   69.19</time>
   <dipole>
    <v name="dipole">      0.00000000       0.00000000       0.03680685 </v>
    <i name="Tr[quadrupol]">  -3952.39555647 </i>
    <i name="Echarged">      0.00000000 </i>
    <i name="Edipol_quadrupol">      0.00000000 </i>
    <i name="Eion">      0.00000000 </i>
   </dipole>
   <energy>
    <i name="e_fr_energy">   -157.80423387 </i>
    <i name="e_wo_entrp">   -157.79863619 </i>
    <i name="e_0_energy">   -157.80143503    <time name="diag">   11   <time name="   <   <time name="diis">   49   <time name="diis">   50.57   50.69</time>
   <time name="orth">    1.85    1.85</time>
   <time name="total">   70.09   70.25</time>
   <dipole>
    <v name="dipole">      0.00000000       0.00000000      -0.04692705 </v>
    <i name="Tr[quadrupol]">  -3969.04911052 </i>
    <i name="Echarged">      0.00000000 </i>
    <i name="Edipol_quadrupol">      0.00000000 </i>
    <i name="Eion">      0.00000000 </i>
   </dipole>
   <energy>
    <i name="e_fr_energy">   -159.09570940 </i>
    <i name="e_wo_entrp">   -159.08939757 </i>
    <i name="e_0_energy">   -159.09255348 </i>
   </energ   <time name="diag">   12   <time name="diag   <time name="diis">   49   <time name="diis">   56.46   56.59</time>
   <time name="orth">    1.95    1.96</time>
   <time name="total">   76.25   76.43</time>
   <dipole>
    <v name="dipole">      0.00000000       0.00000000      -0.04756255 </v>
    <i name="Tr[quadrupol]">  -3969.05928663 </i>
    <i name="Echarged">      0.00000000 </i>
    <i name="Edipol_quadrupol">      0.00000000 </i>
    <i name="Eion">      0.00000000 </i>
   </dipole>
   <energy>
    <i name="e_fr_energy">   -159.09561328 </i>
    <i name="e_wo_entrp">   -159.08932675 </i>
    <i name="e_0_energy">   -159.09247001 </i>
   </energy>
  </scstep>
  <scstep>
   <time name="diag   <time name="diis">   49   <time name="diis">   50.74   50.86</time>
   <time name="orth">    1.98    1.98</time>
   <time name="total">   71.23   71.40</time>
   <dipole>
    <v name="dipole">      0.00000000       0.00000000      -0.04720101 </v>
    <i name="Tr[quadrupol]">  -3969.06592404 </i>
    <i name="Echarged">      0.00000000 </i>
    <i name="Edipol_quadrupol">      0.00000000 </i>
    <i name="Eion">      0.00000000 </i>
   </dipole>
   <energy>
    <i name="e_fr_energy">   -159.09558382 </i>
    <i name="e_wo_entrp">   -159.08929641 </i>
    <i name="e_0_energy">   -159.09244011 </i>
   </energy>
  </scstep>
  <scstep>
   <time name="diag   <time name="diis">   49   <time name="   <time name="diis">   48.24   48.35</time>
   <time name="orth">    1.88    1.88</time>
   <time name="total">   67.58   67.74</time>
   <dipole>
    <v name="dipole">      0.00000000       0.00000000       0.03623897 </v>
    <i name="Tr[quadrupol]">  -3952.40678038 </i>
    <i name="Echarged">      0.00000000 </i>
    <i name="Edipol_quadrupol">      0.00000000 </i>
    <i name="Eion">      0.00000000 </i>
   </dipole>
   <energy>
    <i name="e_fr_energy">   -157.79518199 </i>
    <i name="e_wo_entrp">   -157.78973123 </i>
    <i name="e_0_energy">   -157.79245661    <time name="diag">   12   <time name="   <   <time name="diis">   47.81   47.93</ti   <time name="diis">   46.97   47.08</time>
   <time name="orth">    1.86    1.87</time>
   <time name="total">   66.84   67.00</time>
   <dipole>
    <v name="dipole">      0.00000000       0.00000000       0.03611671 </v>
    <i name="Tr[quadrupol]">  -3952.41368416 </i>
    <i name="Echarged">      0.00000000 </i>
    <i name="Edipol_quadrupol">      0.00000000 </i>
    <i name="Eion">      0.00000000 </i>
   </dipole>
   <energy>
    <i name="e_fr_energy">   -157.79510305 </i>
    <i name="e_wo_entrp">   -157.78963461 </i>
    <i name="e_0_energy">   -157.79236883    <time name="diag">   12.25   12.28</ti   <   <time name="diis">   44.68   44.78</ti   <time name="diis">   41.79   41.89</time>
   <time name="orth">    1.59    1.59</time>
   <time name="total">   59.46   59.60</time>
   <dipole>
    <v name="dipole">      0.00000000       0.00000000       0.03561602 </v>
    <i name="Tr[quadrupol]">  -3952.41260644 </i>
    <i name="Echarged">      0.00000000 </i>
    <i name="Edipol_quadrupol">      0.00000000 </i>
    <i name="Eion">      0.00000000 </i>
   </dipole>
   <energy>
    <i name="e_fr_energy">   -157.79492699 </i>
    <i name="e_wo_entrp">   -157.78948166 </i>
    <i name="e_0_energy">   -157.79220433    <time name="diag">    9.21    9.24</ti   <   <time name="diis">   32.38   32.45</ti   <time name="diis">   32.71   32.79</time>
   <time name="orth">    1.59    1.60</time>
   <time name="total">   47.05   47.16</time>
   <dipole>
    <v name="dipole">      0.00000000       0.00000000       0.03555110 </v>
    <i name="Tr[quadrupol]">  -3952.40912262 </i>
    <i name="Echarged">      0.00000000 </i>
    <i name="Edipol_quadrupol">      0.00000000 </i>
    <i name="Eion">      0.00000000 </i>
   </dipole>
   <energy>
    <i name="e_fr_energy">   -157.79487247 </i>
    <i name="e_wo_entrp">   -157.78940373 </i>
    <i name="e_0_energy">   -157.79213810    <time name="diag">    9.30    9.33</ti   <   <time name="diis">   22.99   23.04</ti   <time name="diis">   28.70   28.77</time>
   <time name="orth">    1.61    1.61</time>
   <time name="total">   40.27   40.36</time>
   <dipole>
    <v name="dipole">      0.00000000       0.00000000       0.03524620 </v>
    <i name="Tr[quadrupol]">  -3952.40532188 </i>
    <i name="Echarged">      0.00000000 </i>
    <i name="Edipol_quadrupol">      0.00000000 </i>
    <i name="Eion">      0.00000000 </i>
   </dipole>
   <energy>
    <i name="alphaZ">    988.93980251 </i>
    <i name="ewald"> 112960.87173561 </i>
    <i name="hartreedc">-140508.77966769 </i>
    <i name="XCdc">   -998.53776850 </i>
    <i nam   <time name="diis">   18.83   18.87</time>
   <time na   <time name="diis">   18.67   18.72</time>
   <time name="orth">    1.59    1.59</time>
   <time name="total">   30.02   30.09</time>
   <dipole>
    <v name="dipole">      0.00000000       0.00000000       0.00933287 </v>
    <i name="Tr[quadrupol]">  -3957.22039444 </i>
    <i name="Echarged">      0.00000000 </i>  <structure>
   <crystal>
    <varray name="basis" >
     <v>       7.91200018       0.00000000       0.00000000 </v>
     <v>       0.00000000       7.91200018       0.00000000 </v>
     <v>       0.00000000       0.00000000      23.93400002 </v>
    </varray>
    <i name="volume">   1498.26234176 </i>
    <varray name="rec_basis" >
     <v>       0.12639029       0.00000000       0.00000000 </v>
     <v>       0.00000000       0.12639029       0.00000000 </v>
     <v>       0.00000000       0.00000000       0.04178157 </v>
    </varray>
   </crystal>
   <varray name="positions" >
    <v>       0.00000000         <structure>
   <crystal>
    <varray name="basis" >
    <structure>
   <crystal>
    <varray name="basis" >
     <v>       7.91200018       0.00000000       0.00000000 </v>
     <v>       0.00000000       7.91200018       0.00000000 </v>
     <v>       0.00000000       0.00000000      23.93400002 </v>
    </varray>
    <i name="volume">   1498.26234176 </i>
    <varray name="rec_basis" >
     <v>       0.12639029       0.00000000       0.00000000 </v>
     <v>       0.00000000       0.12639029       0.00000000 </v>
     <v>       0.00000000       0.00000000       0.04178157 </v>
    </varray>
   </crystal>
   <varray name="positions" >
    <v>       0.00000000       0.25000000       0.00000000 </v>
    <v>       0.25000000       0.00000000       0.00000000 </v>
    <v>       0.50000000       0.25000000       0.00000000 </v>
    <v>       0.75000000       0.00000000       0.00000000 </v>
    <v>       0.00000000       0.75000000       0.00000000 </v>
    <v>       0.25000000       0.50000000       0.00000000 </v>
    <v>       0.50000000       0.75000000       0.00000000 </v>
    <v>       0.75000000       0.50000000       0.00000000 </v>
    <v>       0.00000000       0.00000000       0.08264000 </v>
    <v>       0.25000000       0.25000000       0.08264000 </v>
    <v>       0.50000000       0.00000000       0.08264000 </v>
    <v>       0.75000000       0.25000000       0.08264000 </v>
    <v>       0.00000000       0.50000000       0.08264000 </v>
    <v>       0.25000000       0.75000000       0.08264000 </v>
    <v>       0.50000000       0.50000000       0.08264000 </v>
    <v>       0.75000000       0.75000000       0.08264000 </v>
    <v>       0.00000000       0.25004677       0.16425033 </v>
    <v>       0.24941145       0.00022692       0.16434930 </v>
    <v>       0.50000000       0.25021409       0.16505062 </v>
    <v>       0.75058855       0.00022692       0.16434930 </v>
    <v>       0.00000000       0.74993194       0.16453427 </v>
    <v>       0.24980740       0.49979462       0.16447040 </v>
    <v>       0.50000000       0.74963494       0.16551778 </v>
    <v>       0.75019260       0.49979462       0.16447040 </v>
    <v>       0.00000000       0.00101025       0.24632293 </v>
    <v>       0.24387012       0.24927203       0.24613002 </v>
    <v>       0.50000000       0.00266238       0.24613232 </v>
    <v>       0.75612988       0.24927203       0.24613002 </v>
    <v>         <energy>
   <i name="e_fr_energy">   -159.09553932 </i>
   <i name="e_wo_entrp">   -159.09239827 </i>
   <i name="e_0_energy">     -0.00628210 </i>
  </energy>
  <time name="totalsc"> 1062.81 1065.36</time>
 </calculation>
 name="totalsc"> 1062.57 1065.12</time>
 </calculation>
36       0.26940617 </v>
   </varray>
  </structure>
  <varray name="forces" >
   <v>       0.00000000       0.00391715       0.11667491 </v>
   <v>       0.01803095       0.00374718       0.17051786 </v>
   <v>       0.00000000      -0.01471604       0.13732825 </v>
   <v>      -0.01803095       0.00374718       0.17051786 </v>
   <v>       0.00000000       0.00372286       0.14388093 </v>
   <v>      -0.01930773      -0.00920939       0.14155663 </v>
   <v>       0.00000000       0.01483453       0.11416872 </v>
   <v>       0.01930773      -0.00920939       0.14155663 </v>
   <v>       0.00000000      -0.03225292      -0.20748485 </v>
   <v>       0.01518584       0.06305419      -0.15995759 </v>
   <v>       0.00000000       0.00364667      -0.16727215 </v>
   <v>      -0.01518584       0.06305419      -0.15995759 </v>
   <v>       0.00000000       0.01963230      -0.32263185 </v>
   <v>       0.03046405      -0.05390593      -0.13973155 </v>
   <v>       0.00000000       0.02205789      -0.12724496 </v>
   <v>      -0.03046405      -0.05390593      -0.13973155 </v>
   <v>       0.00000000       0.04818733      -0.00925847 </v>
   <v>       0.01046853      -0.00328002      -0.08900421 </v>
   <v>       0.00000000       0.11264819      -0.22674172 </v>
   <v>      -0.01046853      -0.00328002      -0.08900421 </v>
   <v>       0.00000000      -0.06101036       0.03315021 </v>
   <v>       0.28612846       0.00675077       0.21308167 </v>
   <v>       0.00000000      -0.26314313       0.15551524 </v>
   <v>      -0.28612846       0.00675077       0.21308167 </v>
   <v>       0.00000000       0.02022273       0.09586855 </v>
   <v>      -1.21398550      -0.66344212      -0.25849695 </v>
     <energy>
   <i name="e_fr_energy">   -157.79486547 </i>
   <i name="e_wo_entrp">   -157.79213556 </i>
   <i name="e_0_energy">     -0.00545983 </i>
  </energy>
  <time name="totalsc"> 1062.64 1065.22</time>
 </calculation>
7      -0.69199002 </v>
   <v>       1.25230285       0.47522737      -0.69199002 </v>
   <v>       0.00000000       2.94931308       2.10259395 </v>
   <v>       0.00000000      -2.37096788      -0.63094053 </v>
  </varray>
  <varray name="stress" >
   <v>      -5.32641631       0.00000000       0.00000000 </v>
   <v>       0.00000000      -5.07074883       2.35581319 </v>
   <v>       0.0000  <energy>
   <i name="e_fr_energy">   -158.12491694 </i>
   <i name="e_wo_entrp">   -158.12184022 </i>
   <i name="e_0_energy">     -0.00615344 </i>
  </energy>
  <time name="totalsc"> 1062.67 1065.24</time>
 </calcul  <time name="totalsc"  <scstep>
   <time name="dav">   70.72   70.88</time>
   <time name="total">   75.65   75.83</time>
   <dipole   <time name="total">   77.10   77.29</time>
   <dipole>
    <v name="dipole">      0.00000000       0.00000000       0.00897640 </v>
    <i name="Tr[quadrupol]">  -3942.59075798 </i>
    <i name="Echarged">      0.00000000 </i>
    <i name="Edipol_quadrupol">      0.00000000 </i>
    <i name="Eion">      0.00000000 </i>
   </dipole>
   <energy>
    <i name="alphaZ">    987.58485642 </i>
    <i name="ewald"> 112869.02211151 </i>
    <i name="hartreedc">-140430.03136876 </i>
    <i name="XCdc">   -998.82212942 </i>
    <i name="pawpsdc">  22933.16819504 </i>
    <i name="pawaedc"> -20919.83761302 </i>
    <i name="eentropy">     -0.00553672 </i>
    <i name="bandstr">  -1354.74813353 </i>
    <i name="atom">  26755.39719902 </i>
    <i name="e_fr_energy">   -158.27241946 </i>
    <i name="e_wo_entrp">   -158.26688274 </i>
    <i name="e_0_energy">     <time name="diag">   12.24   12.27</time>
   <time name="diis">   49.69   49.81</time>
   <time na   <time name="diis">   49   <time   <time name="total">   67.98   68.15</time>
   <dipole   <time name="total">   6   <time name="total">   69.57   69.74</time>
   <dipole>
    <v name="dipole">      0.00000000       0.00000000       0.18782612 </v>
    <i name="Tr[quadrupol]">  -3933.69928018 </i>
    <i name="Echarged">      0.00000000 </i>
    <i name="Edipol_quadrupol">      0.00000000 </i>
    <i name="Eion">      0.00000000 </i>
   </dipole>
   <energy>
    <i name="e_fr_energy">   -159.00868093 </i>
    <i name="e_wo_entrp">   -159.00398494 </i>
    <time name="diag">   12.41   12.44</time>
   <time name="diis">   58.35   58.49</time>
   <time na   <time name="diis">   58   <time name="diis">   63.14   63.29</time>
   <time name="orth">    1.87    1.88</time>
   <time name="total">   82.61   82.80</time>
   <dipole>
    <v name="dipole">      0.00000000       0.00000000      -0.04211983 </v>
    <i name="Tr[quadrupol]">  -3933.50746059 </i>
    <i name="Echarged">      0.00000000 </i>
    <i name="Edipol_quadrupol">      0.00000000 </i>
    <i name="Eion">      0.00000000 </i>
   </dipole>
   <energy>
    <i name="e_fr_energy">   -158.91768895 </i>
    <i name="e_wo_entrp">   -158.91396921 </i>
    <time name="diag">   12.22   12.25</time>
   <time name="diis">   49.36   49.48</time>
   <time na   <time name="diis">   49   <time name="diis">   48.83   48.94</time>
   <time name="orth">    1.97    1.97</time>
   <time name="total">   69.03   69.20</time>
   <dipole>
    <v name="dipole">      0.00000000       0.00000000       0.05650092 </v>
    <i name="Tr[quadrupol]">  -3933.90556643 </i>
    <i name="Echarged">      0.00000000 </i>
    <i name="Edipol_quadrupol">      0.00000000 </i>
    <i name="Eion">      0.00000000 </i>
   </dipole>
   <energy>
    <i name="e_fr_energy">   -158.67574574 </i>
    <i name="e_wo_entrp">   -158.66966096 </i>
    <time name="diag">   12.26   12.29</time>
   <time name="diis">   49.59   49.71</time>
   <time na   <time name="diis">   49   <time name="diis">   48.55   48.66</time>
   <time name="orth">    1.96    1.96</time>
   <time name="total">   68.75   68.92</time>
   <dipole>
    <v name="dipole">      0.00000000       0.00000000       0.02665271 </v>
    <i name="Tr[quadrupol]">  -3933.69391304 </i>
    <i name="Echarged">      0.00000000 </i>
    <i name="Edipol_quadrupol">      0.00000000 </i>
    <i name="Eion">      0.00000000 </i>
   </dipole>
   <energy>
    <i name="e_fr_energy">   -158.49921891 </i>
    <i name="e_wo_entrp">   -158.49360296 </i>
    <time name="diag">   12.37   12.40</time>
   <time name="diis">   49.47   49.59</time>
   <time na   <time name="diis">   49   <time name="diis">   48.75   48.87</time>
   <time name="orth">    1.92    1.93</time>
   <time name="total">   69.09   69.26</time>
   <dipole>
    <v name="dipole">      0.00000000       0.00000000       0.03092315 </v>
    <i name="Tr[quadrupol]">  -3933.72862972 </i>
    <i name="Echarged">      0.00000000 </i>
    <i name="Edipol_quadrupol">      0.00000000 </i>
    <i name="Eion">      0.00000000 </i>
   </dipole>
   <energy>
    <i name="e_fr_energy">   -158.48454245 </i>
    <i name="e_wo_entrp">   -158.47881914 </i>
    <time name="diag">   12.41   12.44</time>
   <time name="diis">   49.55   49.66</time>
   <time na   <time name="diis">   49   <time name="diis">   49.60   49.71</time>
   <time name="orth">    1.89    1.90</time>
   <time name="total">   69.98   70.14</time>
   <dipole>
    <v name="dipole">      0.00000000       0.00000000       0.03538682 </v>
    <i name="Tr[quadrupol]">  -3933.74399966 </i>
    <i name="Echarged">      0.00000000 </i>
    <i name="Edipol_quadrupol">      0.00000000 </i>
    <i name="Eion">      0.00000000 </i>
   </dipole>
   <energy>
    <i name="e_fr_energy">   -158.47340161 </i>
    <i name="e_wo_entrp">   -158.46763381 </i>
    <time name="diag">   12.22   12.25</time>
   <time name="diis">   50.41   50.53</time>
   <time na   <time name="diis">   50   <time name="diis">   48.28   48.39</time>
   <time name="orth">    1.87    1.88</time>
   <time name="total">   68.45   68.62</time>
   <dipole>
    <v name="dipole">      0.00000000       0.00000000       0.03724968 </v>
    <i name="Tr[quadrupol]">  -3933.71115839 </i>
    <i name="Echarged">      0.00000000 </i>
    <i name="Edipol_quadrupol">      0.00000000 </i>
    <i name="Eion">      0.00000000 </i>
   </dipole>
   <energy>
    <i name="e_fr_energy">   -158.46144088 </i>
    <i name="e_wo_entrp">   -158.45557260 </i>
    <time name="diag">   12.31   12.34</time>
   <time name="diis">   51.93   52.06</time>
   <time na   <time name="diis">   52   <time name="diis">   51.82   51.94</time>
   <time name="orth">    1.92    1.92</time>
   <time name="total">   71.81   71.98</time>
   <dipole>
    <v name="dipole">      0.00000000       0.00000000       0.03548579 </v>
    <i name="Tr[quadrupol]">  -3933.71659598 </i>
    <i name="Echarged">      0.00000000 </i>
    <i name="Edipol_quadrupol">      0.00000000 </i>
    <i name="Eion">      0.00000000 </i>
   </dipole>
   <energy>
[...]
       <r>    1.3992    0.0000 </r>
       <r>    1.4127    0.0000 </r>
       <r>    1.4301    0.0000 </r>
       <r>    1.4491    0.0000 </r>
       <r>    1.4909    0.0000 </r>
       <r>    2.2845    0.0000 </r>
       <r>    2.3442    0.0000 </r>
       <r>    2.3653    0.0000 </r>
       <r>    2.4018    0.0000 </r>
       <r>    2.4401    0.0000 </r>
       <r>    2.5089    0.0000 </r>
       <r>    2.5331    0.0000 </r>
       <r>    2.5467    0.0000 </r>
       <r>    2.6570    0.0000 </r>
       <r>    2.9890    0.0000 </r>
       <r>    3.0742    0.0000 </r>
      </set>
     </set>
    </set>
   </array>
  </eigenvalues>
  <separator name="orbital magnetization" >
   <v name="MAGDIPOLOUT">      0.00000000      0.00000000      0.00  <dos>
   <i name="efermi  <dos>
   <i name="efermi">     -1.85675572 </i>
   <total>
    <array>
     <dimension dim="1">gridpoints</dimension>
     <dimension dim="2">spin</dimension>
     <field>energy</field>
     <field>total</field>
     <field>integrated</field>
     <set>
      <set comment="spin 1">
       <r>    -8.5969     0.0000     0.0000 </r>
       <r>    -8.5536     0.0000     0.0000 </r>
       <r>    -8.5103     0.0000     0.0000 </r>
       <r>    -8.4670     0.0000     0.0000 </r>
       <r>    -8.4237     0.0000     0.0000 </r>
       <r>    -8.3804     0.0000     0.0000 </r>
       <r>    -8.3372     0.0000     0.0000 </r>
       <r>    -8.2939     0.0000     0.0000 </r>
       <r>    -8.2506     0.0000     0.0000 </r>
       <r>    -8.2073     0.0000     0.0000 </r>
       <r>    -8.1640     0.0000     0.0000 </r>
       <r>    -8.1207     0.0000     0.0000 </r>
       <r>    -8.0774     0.0000     0.0000 </r>
       <r>    -8.0341     0.0000     0.0000 </r>
       <r>    -7.9908     0.7126     0.0308 </r>
       <r>    -7.9476     2.8593     0.1546 </r>
       <r>    -7.9043     2.8953     0.2800 </r>
       <r>    -7.8610     0.0302     0.2813 </r>
       <r>    -7.8177     2.8686     0.4054 </r>
       <r>    -7.7744     5.7795     0.6556 </r>
       <r>    -7.7311     0.0143     0.6562 </r>
       <r>    -7.6878     0.0748     0.6595 </r>
       <r>    -7.6445     2.8304     0.7820 </r>
       <r>    -7.6012     3.1615     0.9189 </r>
       <r>    -7.5580     5.4835     1.1562 </r>
       <r>    -7.5147     0.0000     1.1563 </r>
       <r>    -7.4714     5.1661     1.3799 </r>
       <r>    -7.4281     0.6091     1.4063 </r>
       <r>    -7.3848     0.2141     1.4155 </r>
       <r>    -7.3415     3.1517     1.5520 </r>
       <r>    -7.2982     4.8730     1.7629 </r>
       <r>    -7.2549     4.1432     1.9423 </r>
       <r>    -7.2116     2.0594     2.0314 </r>
       <r>    -7.1684     2.8797     2.1561 </r>
       <r>    -7.1251     0.0081     2.1564 </r>
       <r>    -7.0818     2.8793     2.2811 </r>
       <r>    -7.0385     2.4594     2.3875 </r>
       <r>    -6.9952     3.7648     2.5505 </r>
       <r>    -6.9519     5.3487     2.7820 </r>
       <r>    -6.9086     5.6020     3.0245 </r>
       <r>    -6.8653     2.3199     3.1250 </r>
       <r>    -6.8220     2.5718     3.2363 </r>
       <r>    -6.7788     3.2727     3.3780 </r>
       <r>    -6.7355     1.1579     3.4281 </r>
       <r>    -6.6922     5.7481     3.6769 </r>
       <r>    -6.6489     7.2752     3.9919 </r>
       <r>    -6.6056    10.7181     4.4558 </r>
       <r>    -6.5623    10.9344     4.9292 </r>
       <r>    -6.5190    10.7778     5.3957 </r>
       <r>    -6.4757    10.3963     5.8458 </r>
       <r>    -6.4324    22.7062     6.8287 </r>
       <r>    -6.3892    45.3392     8.7914 </r>
       <r>    -6.3459    44.5002    10.7178 </r>
       <r>    -6.3026    46.2058    12.7180 </r>
       <r>    -6.2593    58.8244    15.2644 </r>
       <r>    -6.2160    57.4352    17.7507 </r>
       <r>    -6.1727    54.7461    20.1206 </r>
       <r>    -6.1294    54.8063    22.4931 </r>
       <r>    -6.0861    54.6378    24.8583 </r>
       <r>    -6.0428    56.3875    27.2993 </r>
       <r>    -5.9996    65.6641    30.1418 </r>
       <r>    -5.9563    61.2725    32.7942 </r>
       <r>    -5.9130    66.6689    35.6802 </r>
       <r>    -5.8697    59.5199    38.2568 </r>
       <r>    -5.8264    53.5081    40.5731 </r>
       <r>    -5.7831    57.0101    43.0410 </r>
       <r>    -5.7398    56.5162    45.4875 </r>
       <r>    -5.6965    57.0048    47.9552 </r>
       <r>    -5.6532    51.5233    50.1856 </r>
       <r>    -5.6100    58.1043    52.7009 </r>
       <r>    -5.5667    68.0292    55.6458 </r>
       <r>    -5.5234    64.3251    58.4303 </r>
       <r>    -5.4801    72.5796    61.5722 </r>
       <r>    -5.4368    81.5288    65.1015 </r>
       <r>    -5.3935    54.5614    67.4634 </r>
       <r>    -5.3502    57.9151    69.9705 </r>
       <r>    -5.3069    41.0268    71.7465 </r>
       <r>    -5.2636    30.0038    73.0453 </r>
       <r>    -5.2204    61.4910    75.7072 </r>
       <r>    -5.1771    75.1095    78.9586 </r>
       <r>    -5.1338    68.7714    81.9357 </r>
       <r>    -5.0905    71.1037    85.0137 </r>
       <r>    -5.0472    76.6063    88.3299 </r>
       <r>    -5.0039    66.5236    91.2096 </r>
       <r>    -4.9606    64.5385    94.0034 </r>
       <r>    -4.9173    53.3624    96.3134 </r>
       <r>    -4.8740    48.7210    98.4225 </r>
       <r>    -4.8308    51.8026   100.6649 </r>
       <r>    -4.7875    57.2817   103.1446 </r>
       <r>    -4.7442    37.8948   104.7850 </r>
       <r>    -4.7009    65.7384   107.6308 </r>
       <r>    -4.6576    61.7660   110.3046 </r>
       <r>    -4.6143    67.5580   113.2291 </r>
       <r>    -4.5710    93.6131   117.2815 </r>
       <r>    -4.5277    63.2956   120.0215 </r>
       <r>    -4.4844    70.3141   123.0653 </r>
       <r>    -4.4412    57.5634   125.5572 </r>
       <r>    -4.3979    60.1054   128.1591 </r>
       <r>    -4.3546    52.7616   130.4430 </r>
       <r>    -4.3113    65.2632   133.2682 </r>
       <r>    -4.2680    70.7897   136.3326 </r>
       <r>    -4.2247    74.3784   139.5524 </r>
       <r>    -4.1814    89.1144   143.4100 </r>
       <r>    -4.1381   114.4544   148.3646 </r>
       <r>    -4.0948    94.7163   152.4648 </r>
       <r>    -4.0516    85.8972   156.1832 </r>
       <r>    -4.0083    88.4156   160.0106 </r>
       <r>    -3.9650    88.7109   163.8508 </r>
       <r>    -3.9217    73.7964   167.0454 </r>
       <r>    -3.8784    75.9090   170.3314 </r>
       <r>    -3.8351    84.8822   174.0059 </r>
       <r>    -3.7918    70.6330   177.0635 </r>
       <r>    -3.7485    75.5070   180.3321 </r>
       <r>    -3.7052    74.4182   183.5536 </r>
       <r>    -3.6620    47.3533   185.6034 </r>
       <r>    -3.6187    55.8179   188.0197 </r>
       <r>    -3.5754    67.8862   190.9585 </r>
       <r>    -3.5321    62.3184   193.6562 </r>
       <r>    -3.4888    61.6564   196.3252 </r>
       <r>    -3.4455    71.8420   199.4352 </r>
       <r>    -3.4022    70.3586   202.4809 </r>
       <r>    -3.3589    85.5294   206.1834 </r>
       <r>    -3.3156    91.2489   210.1334 </r>
       <r>    -3.2724    91.2059   214.0816 </r>
       <r>    -3.2291    68.5403   217.0487 </r>
       <r>    -3.1858    85.1989   220.7368 </r>
       <r>    -3.1425    71.1714   223.8178 </r>
       <r>    -3.0992    75.3391   227.0791 </r>
       <r>    -3.0559    72.1984   230.2045 </r>
       <r>    -3.0126    64.9203   233.0148 </r>
       <r>    -2.9693    67.1502   235.9217 </r>
       <r>    -2.9260    66.3417   238.7935 </r>
       <r>    -2.8828    73.3876   241.9704 </r>
       <r>    -2.8395    84.2885   245.6192 </r>
       <r>    -2.7962    75.6026   248.8919 </r>
       <r>    -2.7529    84.0680   252.5311 </r>
       <r>    -2.7096    86.0396   256.2557 </r>
       <r>    -2.6663    81.7883   259.7962 </r>
       <r>    -2.6230    78.6889   263.2026 </r>
       <r>    -2.5797    72.2164   266.3287 </r>
       <r>    -2.5364    83.7272   269.9532 </r>
       <r>    -2.4932    83.7246   273.5775 </r>
       <r>    -2.4499    83.1605   277.1775 </r>
       <r>    -2.4066    90.2082   281.0825 </r>
       <r>    -2.3633    86.0393   284.8070 </r>
       <r>    -2.3200    88.8518   288.6533 </r>
       <r>    -2.2767    95.3151   292.7794 </r>
       <r>    -2.2334   103.7682   297.2714 </r>
       <r>    -2.1901    83.5559   300.8885 </r>
       <r>    -2.1468    71.2182   303.9714 </r>
       <r>    -2.1036    91.2779   307.9227 </r>
       <r>    -2.0603    81.5077   311.4511 </r>
       <r>    -2.0170    95.3127   315.5771 </r>
       <r>    -1.9737    82.0828   319.1304 </r>
       <r>    -1.9304    83.1591   322.7302 </r>
       <r>    -1.8871    88.3189   326.5535 </r>
       <r>    -1.8438   115.1986   331.5403 </r>
       <r>    -1.8005    77.5706   334.8982 </r>
       <r>    -1.7572    78.3161   338.2885 </r>
       <r>    -1.7140    48.3607   340.3819 </r>
       <r>    -1.6707    27.2327   341.5608 </r>
       <r>    -1.6274    21.0943   342.4740 </r>
       <r>    -1.5841    34.9889   343.9886 </r>
       <r>    -1.5408    29.6298   345.2712 </r>
       <r>    -1.4975    14.3576   345.8928 </r>
       <r>    -1.4542    15.6605   346.5707 </r>
       <r>    -1.4109     7.0254   346.8748 </r>
       <r>    -1.3676    10.6861   347.3374 </r>
       <r>    -1.3244    16.7085   348.0607 </r>
       <r>    -1.2811     4.4284   348.2524 </r>
       <r>    -1.2378     2.6611   348.3676 </r>
       <r>    -1.1945    11.6430   348.8716 </r>
       <r>    -1.1512     4.7083   349.0754 </r>
       <r>    -1.1079    12.4219   349.6131 </r>
       <r>    -1.0646     8.0475   349.9615 </r>
       <r>    -1.0213     9.8399   350.3875 </r>
       <r>    -0.9780    18.2957   351.1795 </r>
       <r>    -0.9348     6.1066   351.4438 </r>
       <r>    -0.8915     7.4471   351.7662 </r>
       <r>    -0.8482     3.0899   351.8999 </r>
       <r>    -0.8049     9.4174   352.3076 </r>
       <r>    -0.7616     4.6609   352.5094 </r>
       <r>    -0.7183    11.5234   353.0082 </r>
       <r>    -0.6750    14.1826   353.6222 </r>
       <r>    -0.6317     5.8405   353.8750 </r>
       <r>    -0.5884     3.1911   354.0131 </r>
       <r>    -0.5452    14.2146   354.6285 </r>
       <r>    -0.5019    15.6801   355.3072 </r>
       <r>    -0.4586     8.8739   355.6914 </r>
       <r>    -0.4153     5.1952   355.9163 </r>
       <r>    -0.3720    11.4642   356.4126 </r>
       <r>    -0.3287     9.3349   356.8167 </r>
       <r>    -0.2854     5.0204   357.0340 </r>
       <r>    -0.2421    13.4631   357.6168 </r>
       <r>    -0.1988     7.7567   357.9526 </r>
       <r>    -0.1556     6.9949   358.2554 </r>
       <r>    -0.1123     3.7934   358.4196 </r>
       <r>    -0.0690     4.1481   358.5991 </r>
       <r>    -0.0257    19.1408   359.4277 </r>
       <r>     0.0176     7.0991   359.7350 </r>
       <r>     0.0609    14.2236   360.3508 </r>
       <r>     0.1042    12.8876   360.9087 </r>
       <r>     0.1475    17.5866   361.6700 </r>
       <r>     0.1908     5.4526   361.9060 </r>
       <r>     0.2340    16.3043   362.6118 </r>
       <r>     0.2773     4.8126   362.8201 </r>
       <r>     0.3206    13.3380   363.3975 </r>
       <r>     0.3639     3.3152   363.5410 </r>
       <r>     0.4072    12.4308   364.0791 </r>
       <r>     0.4505     6.4241   364.3572 </r>
       <r>     0.4938     9.4769   364.7675 </r>
       <r>     0.5371    11.0826   365.2472 </r>
       <r>     0.5804    18.8562   366.0635 </r>
       <r>     0.6236     5.8123   366.3151 </r>
       <r>     0.6669     6.8653   366.6123 </r>
       <r>     0.7102    12.3216   367.1457 </r>
       <r>     0.7535     6.8318   367.4414 </r>
       <r>     0.7968     9.5126   367.8532 </r>
       <r>     0.8401    17.2779   368.6011 </r>
       <r>     0.8834     9.7882   369.0249 </r>
       <r>     0.9267    10.7528   369.4903 </r>
       <r>     0.9700    11.5095   369.9886 </r>
       <r>     1.0132    10.6083   370.4478 </r>
       <r>     1.0565    15.5864   371.1225 </r>
       <r>     1.0998    11.1262   371.6042 </r>
       <r>     1.1431     0.5109   371.6263 </r>
       <r>     1.1864     2.9063   371.7521 </r>
       <r>     1.2297    12.4474   372.2909 </r>
       <r>     1.2730    14.8763   372.9349 </r>
       <r>     1.3163    10.0160   373.3685 </r>
       <r>     1.3596    16.1003   374.0654 </r>
       <r>     1.4028     4.7169   374.2696 </r>
       <r>     1.4461     4.4561   374.4625 </r>
       <r>     1.4894    13.5203   375.0478 </r>
       <r>     1.5327     8.2483   375.4049 </r>
       <r>     1.5760    16.3682   376.1134 </r>
       <r>     1.6193     9.8525   376.5399 </r>
       <r>     1.6626    11.3581   377.0316 </r>
       <r>     1.7059     8.3495   377.3931 </r>
       <r>     1.7492     7.5997   377.7220 </r>
       <r>     1.7924     5.9948   377.9815 </r>
       <r>     1.8357     9.3448   378.3861 </r>
       <r>     1.8790    14.8792   379.0302 </r>
       <r>     1.9223     7.9810   379.3757 </r>
       <r>     1.9656    11.9654   379.8936 </r>
       <r>     2.0089     5.5757   380.1350 </r>
       <r>     2.0522    14.7816   380.7749 </r>
       <r>     2.0955    17.0157   381.5115 </r>
       <r>     2.1388     8.7631   381.8908 </r>
       <r>     2.1820     9.8838   382.3187 </r>
       <r>     2.2253    13.8576   382.9186 </r>
       <r>     2.2686     7.5947   383.2473 </r>
       <r>     2.3119    11.7997   383.7581 </r>
       <r>     2.3552    11.0272   384.2355 </r>
       <r>     2.3985     8.5523   384.6057 </r>
       <r>     2.4418     2.7077   384.7229 </r>
       <r>     2.4851    14.9612   385.3706 </r>
       <r>     2.5284    15.8586   386.0571 </r>
       <r>     2.5716     8.5334   386.4265 </r>
       <r>     2.6149     8.8828   386.8110 </r>
       <r>     2.6582     4.1619   386.9912 </r>
       <r>     2.7015    10.4512   387.4436 </r>
       <r>     2.7448    16.5684   388.1608 </r>
       <r>     2.7881     7.6306   388.4911 </r>
       <r>     2.8314    18.5393   389.2937 </r>
       <r>     2.8747    18.8031   390.1076 </r>
       <r>     2.9180    12.6101   390.6535 </r>
       <r>     2.9612    12.0571   391.1755 </r>
       <r>     3.0045     7.7640   391.5116 </r>
       <r>     3.0478     9.6927   391.9311 </r>
       <r>     3.0911     6.6731   392.2200 </r>
       <r>     3.1344    11.6551   392.7245 </r>
       <r>     3.1777     5.8617   392.9783 </r>
       <r>     3.2210     8.0290   393.3259 </r>
       <r>     3.2643    15.4598   393.9951 </r>
       <r>     3.3076    11.1074   394.4759 </r>
       <r>     3.3508    11.2116   394.9613 </r>
       <r>     3.3941    24.1817   396.0081 </r>
       <r>     3.4374    18.7252   396.8187 </r>
       <r>     3.4807    13.7777   397.4151 </r>
       <r>     3.5240    12.8490   397.9713 </r>
       <r>     3.5673    12.9035   398.5299 </r>
       <r>     3.6106     9.9788   398.9619 </r>
       <r>     3.6539     8.8991   399.3471 </r>
       <r>     3.6972     5.9736   399.6057 </r>
       <r>     3.7404     1.9611   399.6906 </r>
       <r>     3.7837     4.5366   399.8870 </r>
       <r>     3.8270     2.6114   400.0000 </r>
       <r>     3.8703     0.0001   400.0000 </r>
       <r>     3.9136     0.0000   400.0000 </r>
       <r>     3.9569     0.0000   400.0000 </r>
       <r>     4.0002     0.0000   400.0000 </r>
       <r>     4.0435     0.0000   400.0000 </r>
       <r>     4.0868     0.0000   400.0000 </r>
       <r>     4.1300     0.0000   400.0000 </r>
       <r>     4.1733     0.0000   400.0000 </r>
       <r>     4.2166     0.0000   400.0000 </r>
       <r>     4.2599     0.0000   400.0000 </r>
       <r>     4.3032     0.0000   400.0000 </r>
       <r>     4.3465     0.0000   400.0000 </r>
       <r>     4.3898     0.0000   400.0000 </r>
      </set>
     </set>
    </array>
   </total>
  </dos>
 </calculation>
 <structure name="finalpos" >
  <crystal>
   <varray name="basis" >
    <v>       7.91200018       0.00000000       0.00000000 </v>
    <v>       0.00000000       7.91200018       0.00000000 </v>
    <v>       0.00000000       0.00000000      23.93400002 </v>
   </varray>
   <i name="volume">   1498.26234176 </i>
   <varray name="rec_basis" >
    <v>       0.12639029       0.00000000       0.00000000 </v>
    <v>       0.00000000       0.12639029       0.00000000 </v>
    <v>       0.00000000       0.00000000       0.04178157 </v>
   </varray>
  </crystal>
  <varray name="positions" >
   <v>       0.00000000       0.25000000       0.00000000 </v>
   <v>       0.25000000       0.00000000       0.00000000 </v>
   <v>       0.50000000       0.25000000       0.00000000 </v>
   <v>       0.75000000       0.00000000       0.00000000 </v>
   <v>       0.00000000       0.75000000       0.00000000 </v>
   <v>       0.25000000       0.50000000       0.00000000 </v>
   <v>       0.50000000       0.75000000       0.00000000 </v>
   <v>       0.75000000       0.50000000       0.00000000 </v>
   <v>       0.00000000       0.00000000       0.08264000 </v>
   <v>       0.25000000       0.25000000       0.08264000 </v>
   <v>       0.50000000       0.00000000       0.08264000 </v>
   <v>       0.75000000       0.25000000       0.08264000 </v>
   <v>       0.00000000       0.50000000       0.08264000 </v>
   <v>       0.25000000       0.75000000       0.08264000 </v>
   <v>       0.50000000       0.50000000       0.08264000 </v>
   <v>       0.75000000       0.75000000       0.08264000 </v>
   <v>       0.00000000       0.25547642       0.16382234 </v>
   <v>       0.25068126       1.00301256       0.16381074 </v>
   <v>       0.50000000       0.25672457       0.16828833 </v>
   <v>       0.74931874       1.00301256       0.16381074 </v>
   <v>       0.00000000       0.75050756       0.16288716 </v>
   <v>       0.25540441       0.50481315       0.16679885 </v>
   <v>       0.50000000       0.75554190       0.16479414 </v>
   <v>       0.74459559       0.50481315       0.16679885 </v>
   <v>       0.00000000       1.00710605       0.24662495 </v>
   <v>       0.23867378       0.25069970       0.24510119 </v>
   <v>       0.50000000       0.99469726       0.24830271 </v>
   <v>       0.76132622       0.25069970       0.24510119 </v>
   <v>       0.00000000       0.50396133       0.24705864 </v>
   <v>       0.23257698       0.76265162       0.24644373 </v>
   <v>       0.76742302       0.76265162       0.24644373 </v>
   <v>       0.50000000       0.56470423       0.25636886 </v>
   <v>       0.50000000       0.28326279       0.31041796 </v>
  </varray>
  <varray name="selective"  type="logical" >
   <v type="logical" >  F  F  F </v>
   <v type="logical" >  F  F  F </v>
   <v type="logical" >  F  F  F </v>
   <v type="logical" >  F  F  F </v>
   <v type="logical" >  F  F  F </v>
   <v type="logical" >  F  F  F </v>
   <v type="logical" >  F  F  F </v>
   <v type="logical" >  F  F  F </v>
   <v type="logical" >  F  F  F </v>
   <v type="logical" >  F  F  F </v>
   <v type="logical" >  F  F  F </v>
   <v type="logical" >  F  F  F </v>
   <v type="logical" >  F  F  F </v>
   <v type="logical" >  F  F  F </v>
   <v type="logical" >  F  F  F </v>
   <v type="logical" >  F  F  F </v>
   <v type="logical" >  T  T  T </v>
   <v type="logical" >  T  T  T </v>
   <v type="logical" >  T  T  T </v>
   <v type="logical" >  T  T  T </v>
   <v type="logical" >  T  T  T </v>
   <v type="logical" >  T  T  T </v>
   <v type="logical" >  T  T  T </v>
   <v type="logical" >  T  T  T </v>
   <v type="logical" >  T  T  T </v>
   <v type="logical" >  T  T  T </v>
   <v type="logical" >  T  T  T </v>
   <v type="logical" >  T  T  T </v>
   <v type="logical" >  T  T  T </v>
   <v type="logical" >  T  T  T </v>
   <v type="logical" >  T  T  T </v>
   <v type="logical" >  T  T  T </v>
   <v type="logical" >  T  T  T </v>
  </varray>
  <nose>
   <v>      -3.00000000       0.00000000       0.00010000       0.00010000 </v>
  </nose>
 </structure>
</modeling>
 </structure>
</modeling>
