 running on   15 total cores
 distrk:  each k-point on   15 cores,    1 groups
 distr:  one band on    1 cores,   15 groups
 using from now: INCAR     
 vasp.5.4.1 24Jun15 (build Oct 26 2018 17:15:27) complex                        
  
 POSCAR found type information on POSCAR  Pt O 
 POSCAR found :  2 types and      17 ions
 scaLAPACK will be used

 ----------------------------------------------------------------------------- 
|                                                                             |
|           W    W    AA    RRRRR   N    N  II  N    N   GGGG   !!!           |
|           W    W   A  A   R    R  NN   N  II  NN   N  G    G  !!!           |
|           W    W  A    A  R    R  N N  N  II  N N  N  G       !!!           |
|           W WW W  AAAAAA  RRRRR   N  N N  II  N  N N  G  GGG   !            |
|           WW  WW  A    A  R   R   N   NN  II  N   NN  G    G                |
|           W    W  A    A  R    R  N    N  II  N    N   GGGG   !!!           |
|                                                                             |
|      For optimal performance we recommend to set                            |
|        NCORE= 4 - approx SQRT( number of cores)                             |
|      NCORE specifies how many cores store one orbital (NPAR=cpu/NCORE).     |
|      This setting can  greatly improve the performance of VASP for DFT.     |
|      The default, NPAR=number of cores might be grossly inefficient         |
|      on modern multi-core architectures or massively parallel machines.     |
|      Do your own testing !!!!                                               |
|      Unfortunately you need to use the default for GW and RPA calculations. |
|      (for HF NCORE is supported but not extensively tested yet)             |
|                                                                             |
 ----------------------------------------------------------------------------- 

 LDA part: xc-table for Ceperly-Alder, standard interpolation
 found WAVECAR, reading the header
  number of bands has changed, file:   100 present:   105
  trying to continue reading WAVECAR, but it might fail
 POSCAR, INCAR and KPOINTS ok, starting setup
 WARNING: small aliasing (wrap around) errors must be expected
 FFT: planning ...
 reading WAVECAR
 random initialization beyond band          101
 the WAVECAR file was read successfully
 initial charge from wavefunction
 entering main loop
       N       E                     dE             d eps       ncg     rms          rms(c)
DAV:   1    -0.107033730093E+04   -0.10703E+04   -0.14073E+04  8190   0.236E+02    0.932E+01
RMM:   2    -0.993140438605E+03    0.77197E+02   -0.71367E+03 11865   0.271E+02    0.527E+01
RMM:   3    -0.503804826495E+03    0.48934E+03   -0.15971E+03 11147   0.145E+02    0.348E+01
RMM:   4    -0.180242783656E+03    0.32356E+03   -0.17093E+03  9713   0.120E+02    0.566E+01
RMM:   5    -0.176529366951E+03    0.37134E+01   -0.52403E+02 11797   0.645E+01    0.508E+01
RMM:   6    -0.270840691127E+03   -0.94311E+02   -0.10782E+03 11644   0.868E+01    0.367E+01
RMM:   7    -0.255551798772E+03    0.15289E+02   -0.44965E+02 11997   0.548E+01    0.316E+01
RMM:   8    -0.174258744623E+03    0.81293E+02   -0.26669E+02 11454   0.355E+01    0.344E+01
RMM:   9    -0.165243618022E+03    0.90151E+01   -0.14619E+02 11043   0.194E+01    0.319E+01
RMM:  10    -0.128127646230E+03    0.37116E+02   -0.80986E+01  9230   0.156E+01    0.307E+01
RMM:  11    -0.144378582334E+03   -0.16251E+02   -0.42689E+01  8936   0.128E+01    0.299E+01
RMM:  12    -0.172074616270E+03   -0.27696E+02   -0.85126E+01  8052   0.199E+01    0.326E+01
RMM:  13    -0.211248994479E+03   -0.39174E+02   -0.43723E+01  7920   0.186E+01    0.427E+01
RMM:  14    -0.114957620535E+03    0.96291E+02   -0.15165E+01  7321   0.897E+00    0.210E+01
RMM:  15    -0.109700749697E+03    0.52569E+01   -0.10731E+01  7881   0.936E+00    0.212E+01
RMM:  16    -0.107489884644E+03    0.22109E+01   -0.82910E-01  8124   0.297E+00    0.189E+01
RMM:  17    -0.110187896357E+03   -0.26980E+01   -0.78930E-01  7555   0.250E+00    0.217E+01
RMM:  18    -0.105353301492E+03    0.48346E+01   -0.11761E+00  7190   0.338E+00    0.181E+01
RMM:  19    -0.100074740938E+03    0.52786E+01   -0.12321E+00  7512   0.342E+00    0.124E+01
RMM:  20    -0.989671601762E+02    0.11076E+01   -0.27729E-01  7636   0.175E+00    0.104E+01
RMM:  21    -0.983463348619E+02    0.62083E+00   -0.81147E-02  7886   0.818E-01    0.920E+00
RMM:  22    -0.979814817318E+02    0.36485E+00   -0.20220E-01  7225   0.159E+00    0.926E+00
RMM:  23    -0.973448388278E+02    0.63664E+00   -0.44815E-01  7181   0.211E+00    0.852E+00
RMM:  24    -0.103974995659E+03   -0.66302E+01   -0.15653E+00  7522   0.268E+00    0.207E+01
RMM:  25    -0.105079037732E+03   -0.11040E+01   -0.26118E-01  7432   0.214E+00    0.211E+01
RMM:  26    -0.104811300708E+03    0.26774E+00   -0.64047E-02  8496   0.471E-01    0.209E+01
RMM:  27    -0.105857970599E+03   -0.10467E+01   -0.12342E-02  7708   0.276E-01    0.216E+01
RMM:  28    -0.107288324830E+03   -0.14304E+01   -0.18792E-02  7649   0.321E-01    0.224E+01
RMM:  29    -0.107852144274E+03   -0.56382E+00   -0.73193E-03  8154   0.246E-01    0.227E+01
RMM:  30    -0.107904908090E+03   -0.52764E-01   -0.88508E-04  8895   0.717E-02    0.228E+01
RMM:  31    -0.110184644095E+03   -0.22797E+01   -0.51496E-02  7559   0.606E-01    0.239E+01
RMM:  32    -0.111644064771E+03   -0.14594E+01   -0.56721E-02  7798   0.695E-01    0.243E+01
RMM:  33    -0.111239222699E+03    0.40484E+00   -0.41141E-01  7352   0.205E+00    0.222E+01
RMM:  34    -0.106978709103E+03    0.42605E+01   -0.29684E-01  7592   0.163E+00    0.185E+01
RMM:  35    -0.104325813455E+03    0.26529E+01   -0.89985E-02  7623   0.794E-01    0.168E+01
RMM:  36    -0.104704646172E+03   -0.37883E+00   -0.83079E-03  7229   0.388E-01    0.171E+01
RMM:  37    -0.104437016100E+03    0.26763E+00   -0.12030E-02  7338   0.371E-01    0.166E+01
RMM:  38    -0.100849904909E+03    0.35871E+01   -0.20569E-01  7591   0.126E+00    0.133E+01
RMM:  39    -0.977882849653E+02    0.30616E+01   -0.40812E-01  7609   0.182E+00    0.925E+00
RMM:  40    -0.980087908000E+02   -0.22051E+00   -0.51802E-02  7997   0.683E-01    0.992E+00
RMM:  41    -0.967618070787E+02    0.12470E+01   -0.14536E-01  7474   0.102E+00    0.714E+00
RMM:  42    -0.968146221534E+02   -0.52815E-01   -0.16516E-02  7176   0.559E-01    0.732E+00
RMM:  43    -0.966733034618E+02    0.14132E+00   -0.17366E-02  7173   0.468E-01    0.636E+00
RMM:  44    -0.964932743562E+02    0.18003E+00   -0.18764E-01  7530   0.126E+00    0.755E+00
RMM:  45    -0.962549513898E+02    0.23832E+00   -0.28238E-02  7450   0.667E-01    0.592E+00
RMM:  46    -0.962593535359E+02   -0.44021E-02   -0.25900E-02  7951   0.403E-01    0.599E+00
RMM:  47    -0.960004756111E+02    0.25888E+00   -0.41576E-02  7299   0.724E-01    0.219E+00
RMM:  48    -0.959597316369E+02    0.40744E-01   -0.15319E-02  7188   0.458E-01    0.243E+00
RMM:  49    -0.959820452692E+02   -0.22314E-01   -0.10367E-02  7185   0.330E-01    0.309E+00
RMM:  50    -0.959481285350E+02    0.33917E-01   -0.99041E-03  7382   0.322E-01    0.202E+00
RMM:  51    -0.960677162469E+02   -0.11959E+00   -0.28570E-02  7192   0.652E-01    0.516E+00
RMM:  52    -0.958998674062E+02    0.16785E+00   -0.15191E-02  7173   0.362E-01    0.163E+00
RMM:  53    -0.959117724535E+02   -0.11905E-01   -0.96897E-03  7240   0.329E-01    0.206E+00
RMM:  54    -0.958748293283E+02    0.36943E-01   -0.83693E-03  7191   0.314E-01    0.126E+00
RMM:  55    -0.958644591025E+02    0.10370E-01   -0.79821E-03  7335   0.296E-01    0.106E+00
RMM:  56    -0.958575579012E+02    0.69012E-02   -0.45901E-03  7700   0.195E-01    0.758E-01
RMM:  57    -0.958617402391E+02   -0.41823E-02   -0.70952E-03  7186   0.269E-01    0.137E+00
RMM:  58    -0.958567805714E+02    0.49597E-02   -0.44733E-03  7241   0.206E-01    0.114E+00
RMM:  59    -0.958859080268E+02   -0.29127E-01   -0.38480E-03  7507   0.139E-01    0.151E+00
RMM:  60    -0.958812540058E+02    0.46540E-02   -0.15375E-03  7181   0.154E-01    0.135E+00
RMM:  61    -0.958816447485E+02   -0.39074E-03   -0.26063E-04  7887   0.512E-02    0.135E+00
RMM:  62    -0.958798760944E+02    0.17687E-02   -0.23348E-03  7168   0.148E-01    0.136E+00
RMM:  63    -0.958690259371E+02    0.10850E-01   -0.65385E-04  7282   0.942E-02    0.965E-01
RMM:  64    -0.958612879123E+02    0.77380E-02   -0.70013E-04  7642   0.806E-02    0.564E-01
RMM:  65    -0.958581993015E+02    0.30886E-02   -0.31111E-04  7244   0.646E-02    0.444E-01
RMM:  66    -0.958561660300E+02    0.20333E-02   -0.38524E-04  7548   0.554E-02    0.457E-01
RMM:  67    -0.958549706457E+02    0.11954E-02   -0.24586E-04  7180   0.565E-02    0.324E-01
RMM:  68    -0.958545194082E+02    0.45124E-03   -0.14714E-04  7393   0.358E-02    0.227E-01
RMM:  69    -0.958541323773E+02    0.38703E-03   -0.97095E-05  6766   0.367E-02    0.179E-01
RMM:  70    -0.958540668743E+02    0.65503E-04   -0.47706E-05  5628   0.266E-02    0.160E-01
RMM:  71    -0.958539060694E+02    0.16080E-03   -0.40280E-05  5270   0.190E-02    0.138E-01
RMM:  72    -0.958543586738E+02   -0.45260E-03   -0.25686E-04  7246   0.527E-02    0.406E-01
RMM:  73    -0.958538917613E+02    0.46691E-03   -0.70228E-05  5853   0.376E-02    0.310E-01
RMM:  74    -0.958533641042E+02    0.52766E-03   -0.80356E-05  6456   0.239E-02    0.113E-01
RMM:  75    -0.958534073711E+02   -0.43267E-04   -0.40197E-05  5283   0.280E-02    0.136E-01
RMM:  76    -0.958534091480E+02   -0.17769E-05   -0.41024E-05  5329   0.165E-02
   1 F= -.95853409E+02 E0= -.95743469E+02  d E =-.958534E+02
 curvature:   0.00 expect dE= 0.000E+00 dE for cont linesearch  0.000E+00
 trial: gam= 0.00000 g(F)=  0.225E+00 g(S)=  0.000E+00 ort = 0.000E+00 (trialstep = 0.100E+01)
 search vector abs. value=  0.225E+00
 bond charge predicted
       N       E                     dE             d eps       ncg     rms          rms(c)
DAV:   1    -0.960420878480E+02   -0.18868E+00   -0.12107E+01  7620   0.100E+01    0.802E-01
RMM:   2    -0.967827131727E+02   -0.74063E+00   -0.39420E-01  7227   0.216E+00    0.747E+00
RMM:   3    -0.961418507389E+02    0.64086E+00   -0.73856E-02  7229   0.799E-01    0.278E+00
RMM:   4    -0.960611042534E+02    0.80746E-01   -0.23638E-02  7246   0.477E-01    0.591E-01
RMM:   5    -0.960605440950E+02    0.56016E-03   -0.88981E-03  7193   0.383E-01    0.835E-01
RMM:   6    -0.960583851033E+02    0.21590E-02   -0.17087E-03  7634   0.111E-01    0.405E-01
RMM:   7    -0.960588290044E+02   -0.44390E-03   -0.17950E-03  7257   0.141E-01    0.294E-01
RMM:   8    -0.960576107211E+02    0.12183E-02   -0.12770E-03  7195   0.125E-01    0.994E-02
RMM:   9    -0.960575159100E+02    0.94811E-04   -0.24589E-04  7228   0.621E-02    0.522E-02
RMM:  10    -0.960575033238E+02    0.12586E-04   -0.66671E-05  6413   0.292E-02    0.482E-02
RMM:  11    -0.960574813975E+02    0.21926E-04   -0.22406E-05  4175   0.221E-02    0.184E-02
RMM:  12    -0.960574985773E+02   -0.17180E-04   -0.12710E-05  4003   0.165E-02    0.222E-02
RMM:  13    -0.960575088532E+02   -0.10276E-04   -0.60757E-06  3909   0.130E-02    0.207E-02
RMM:  14    -0.960575370833E+02   -0.28230E-04   -0.67768E-06  4018   0.793E-03    0.143E-02
RMM:  15    -0.960575490435E+02   -0.11960E-04   -0.23578E-06  3877   0.604E-03    0.151E-02
RMM:  16    -0.960575607137E+02   -0.11670E-04   -0.17955E-06  3476   0.470E-03    0.172E-02
RMM:  17    -0.960575829306E+02   -0.22217E-04   -0.70878E-06  3731   0.546E-03    0.695E-03
RMM:  18    -0.960575897269E+02   -0.67963E-05   -0.32129E-06  3162   0.437E-03
   2 F= -.96057590E+02 E0= -.95948922E+02  d E =-.204181E+00
 ZBRENT: can't locate minimum, use default step
 trial-energy change:   -0.204181  1 .order   -0.206473   -0.224644   -0.188302
 step:   4.0000(harm=  6.1814)  dis= 0.12684  next Energy=   -96.547717 (dE=-0.694E+00)
 bond charge predicted
       N       E                     dE             d eps       ncg     rms          rms(c)
DAV:   1    -0.962614158534E+02   -0.20383E+00   -0.11116E+02  7515   0.307E+01    0.496E+00
RMM:   2    -0.115804626360E+03   -0.19543E+02   -0.12655E+01  7653   0.111E+01    0.242E+01
RMM:   3    -0.100146023660E+03    0.15659E+02   -0.26790E+00  7306   0.463E+00    0.142E+01
RMM:   4    -0.968640180673E+02    0.32820E+01   -0.11787E+00  7274   0.334E+00    0.701E+00
RMM:   5    -0.965097517343E+02    0.35427E+00   -0.26263E-01  7664   0.168E+00    0.459E+00
RMM:   6    -0.963597346936E+02    0.15002E+00   -0.99749E-02  7723   0.975E-01    0.109E+00
RMM:   7    -0.963531037273E+02    0.66310E-02   -0.37773E-02  7216   0.728E-01    0.101E+00
RMM:   8    -0.963632393347E+02   -0.10136E-01   -0.13872E-02  7291   0.386E-01    0.160E+00
RMM:   9    -0.963481213076E+02    0.15118E-01   -0.12911E-02  7359   0.328E-01    0.881E-01
RMM:  10    -0.963452540556E+02    0.28673E-02   -0.30353E-03  7265   0.232E-01    0.586E-01
RMM:  11    -0.963453397322E+02   -0.85677E-04   -0.60499E-04  7285   0.904E-02    0.591E-01
RMM:  12    -0.963428744224E+02    0.24653E-02   -0.41775E-04  7163   0.825E-02    0.104E-01
RMM:  13    -0.963431287581E+02   -0.25434E-03   -0.21806E-04  7098   0.483E-02    0.245E-01
RMM:  14    -0.963428627855E+02    0.26597E-03   -0.58971E-05  5622   0.410E-02    0.105E-01
RMM:  15    -0.963428072539E+02    0.55532E-04   -0.50109E-05  5278   0.246E-02    0.661E-02
RMM:  16    -0.963428600939E+02   -0.52840E-04   -0.21429E-05  4340   0.241E-02    0.512E-02
RMM:  17    -0.963430001320E+02   -0.14004E-03   -0.12014E-05  4125   0.133E-02    0.111E-01
RMM:  18    -0.963430469806E+02   -0.46849E-04   -0.14791E-05  4246   0.141E-02    0.330E-02
RMM:  19    -0.963432500327E+02   -0.20305E-03   -0.34936E-05  4847   0.144E-02    0.400E-02
RMM:  20    -0.963433702511E+02   -0.12022E-03   -0.23333E-05  4526   0.136E-02    0.255E-02
RMM:  21    -0.963434467612E+02   -0.76510E-04   -0.21279E-05  4514   0.100E-02    0.181E-02
RMM:  22    -0.963434650872E+02   -0.18326E-04   -0.74619E-06  4004   0.865E-03    0.153E-02
RMM:  23    -0.963434712084E+02   -0.61211E-05   -0.44131E-06  3727   0.643E-03
   3 F= -.96343471E+02 E0= -.96238072E+02  d E =-.490062E+00
 curvature:  -2.54 expect dE=-0.377E-01 dE for cont linesearch -0.240E-01
 ZBRENT: interpolating
 opt :   3.4106  next Energy=   -96.357041 (dE=-0.504E+00)
 bond charge predicted
       N       E                     dE             d eps       ncg     rms          rms(c)
DAV:   1    -0.963477200799E+02   -0.42550E-02   -0.43103E+00  7170   0.592E+00    0.990E-01
RMM:   2    -0.982812318453E+02   -0.19335E+01   -0.29802E-01  7361   0.150E+00    0.137E+01
RMM:   3    -0.964261294808E+02    0.18551E+01   -0.16219E-01  7202   0.112E+00    0.240E+00
RMM:   4    -0.963584167629E+02    0.67713E-01   -0.34454E-02  7220   0.623E-01    0.122E+00
RMM:   5    -0.963513073314E+02    0.71094E-02   -0.11161E-02  7231   0.399E-01    0.624E-01
RMM:   6    -0.963489035546E+02    0.24038E-02   -0.31332E-03  7466   0.195E-01    0.352E-01
RMM:   7    -0.963481960685E+02    0.70749E-03   -0.91049E-04  7564   0.894E-02    0.131E-01
RMM:   8    -0.963483328217E+02   -0.13675E-03   -0.64732E-04  7205   0.911E-02    0.153E-01
RMM:   9    -0.963480626316E+02    0.27019E-03   -0.25675E-04  7233   0.586E-02    0.702E-02
RMM:  10    -0.963480397784E+02    0.22853E-04   -0.44807E-05  5331   0.252E-02    0.306E-02
RMM:  11    -0.963480377153E+02    0.20631E-05   -0.14618E-05  4080   0.206E-02
   4 F= -.96348038E+02 E0= -.96242065E+02  d E =-.494629E+00
 curvature:  -1.44 expect dE=-0.908E-02 dE for cont linesearch -0.435E-02
 ZBRENT: interpolating
 opt :   3.6236  next Energy=   -96.350814 (dE=-0.497E+00)
 bond charge predicted
       N       E                     dE             d eps       ncg     rms          rms(c)
DAV:   1    -0.963512415489E+02   -0.32018E-02   -0.56316E-01  7260   0.216E+00    0.375E-01
RMM:   2    -0.966130211132E+02   -0.26178E+00   -0.51813E-02  7492   0.646E-01    0.508E+00
RMM:   3    -0.963682995777E+02    0.24472E+00   -0.23634E-02  7271   0.433E-01    0.116E+00
RMM:   4    -0.963512092278E+02    0.17090E-01   -0.55758E-03  7246   0.243E-01    0.282E-01
RMM:   5    -0.963516502259E+02   -0.44100E-03   -0.12909E-03  7311   0.146E-01    0.187E-01
RMM:   6    -0.963514167977E+02    0.23343E-03   -0.33324E-04  7453   0.681E-02    0.916E-02
RMM:   7    -0.963513674202E+02    0.49378E-04   -0.10881E-04  6780   0.345E-02    0.481E-02
RMM:   8    -0.963513537416E+02    0.13679E-04   -0.60372E-05  6152   0.288E-02    0.389E-02
RMM:   9    -0.963513335560E+02    0.20186E-04   -0.20565E-05  4203   0.212E-02    0.151E-02
RMM:  10    -0.963513348119E+02   -0.12559E-05   -0.78429E-06  3992   0.140E-02
   5 F= -.96351335E+02 E0= -.96245586E+02  d E =-.497926E+00
 curvature:  -0.92 expect dE=-0.362E-02 dE for cont linesearch -0.629E-04
 trial: gam= 0.00009 g(F)=  0.394E-02 g(S)=  0.000E+00 ort = 0.392E-02 (trialstep = 0.152E+01)
 search vector abs. value=  0.394E-02
 bond charge predicted
       N       E                     dE             d eps       ncg     rms          rms(c)
DAV:   1    -0.963561193708E+02   -0.47858E-02   -0.53782E-01  7230   0.190E+00    0.717E-02
RMM:   2    -0.963672333801E+02   -0.11114E-01   -0.82608E-03  7202   0.324E-01    0.104E+00
RMM:   3    -0.963570700146E+02    0.10163E-01   -0.14002E-03  7388   0.142E-01    0.187E-01
RMM:   4    -0.963569226928E+02    0.14732E-03   -0.42450E-04  7334   0.882E-02    0.102E-01
RMM:   5    -0.963568215002E+02    0.10119E-03   -0.62204E-05  6334   0.288E-02    0.530E-02
RMM:   6    -0.963567868092E+02    0.34691E-04   -0.21068E-05  4053   0.189E-02    0.350E-02
RMM:   7    -0.963567763250E+02    0.10484E-04   -0.12279E-04  7109   0.335E-02    0.316E-02
RMM:   8    -0.963567662839E+02    0.10041E-04   -0.58701E-05  6280   0.239E-02    0.153E-02
RMM:   9    -0.963567642881E+02    0.19958E-05   -0.90896E-06  3803   0.151E-02
   6 F= -.96356764E+02 E0= -.96251045E+02  d E =-.542948E-02
 ZBRENT: can't locate minimum, use default step
 trial-energy change:   -0.005429  1 .order   -0.005508   -0.006013   -0.005003
 step:   6.0989(harm=  9.0797)  dis= 0.01261  next Energy=   -96.369238 (dE=-0.179E-01)
 bond charge predicted
       N       E                     dE             d eps       ncg     rms          rms(c)
DAV:   1    -0.963612423824E+02   -0.44761E-02   -0.48348E+00  7140   0.570E+00    0.233E-01
RMM:   2    -0.964670815031E+02   -0.10584E+00   -0.79501E-02  7202   0.108E+00    0.307E+00
RMM:   3    -0.963698899543E+02    0.97192E-01   -0.13698E-02  7996   0.379E-01    0.614E-01
RMM:   4    -0.963690002662E+02    0.88969E-03   -0.29341E-03  7240   0.228E-01    0.348E-01
RMM:   5    -0.963678895268E+02    0.11107E-02   -0.66538E-04  7226   0.891E-02    0.160E-01
RMM:   6    -0.963675564772E+02    0.33305E-03   -0.22493E-04  7169   0.504E-02    0.106E-01
RMM:   7    -0.963674319989E+02    0.12448E-03   -0.69890E-04  7188   0.799E-02    0.941E-02
RMM:   8    -0.963673296972E+02    0.10230E-03   -0.67141E-04  7527   0.770E-02    0.580E-02
RMM:   9    -0.963673142981E+02    0.15399E-04   -0.87586E-05  6931   0.421E-02    0.360E-02
RMM:  10    -0.963672927159E+02    0.21582E-04   -0.19446E-05  3960   0.190E-02    0.147E-02
RMM:  11    -0.963672867714E+02    0.59445E-05   -0.12599E-05  3829   0.153E-02
   7 F= -.96367287E+02 E0= -.96261713E+02  d E =-.159520E-01
 curvature:  -3.83 expect dE=-0.331E-02 dE for cont linesearch -0.182E-02
 ZBRENT: increasing intervall
 opt :  15.2472  next Energy=   -96.362324 (dE=-0.110E-01)
 bond charge predicted
       N       E                     dE             d eps       ncg     rms          rms(c)
DAV:   1    -0.963312629452E+02    0.36030E-01   -0.19327E+01  7140   0.114E+01    0.538E-01
RMM:   2    -0.968295095097E+02   -0.49825E+00   -0.37571E-01  7193   0.265E+00    0.625E+00
RMM:   3    -0.963755401951E+02    0.45397E+00   -0.72283E-02  8122   0.782E-01    0.142E+00
RMM:   4    -0.963683860469E+02    0.71541E-02   -0.13324E-02  7264   0.494E-01    0.881E-01
RMM:   5    -0.963615950429E+02    0.67910E-02   -0.35273E-03  7206   0.212E-01    0.323E-01
RMM:   6    -0.963603334130E+02    0.12616E-02   -0.10129E-03  7200   0.109E-01    0.242E-01
RMM:   7    -0.963597467241E+02    0.58669E-03   -0.21690E-03  7238   0.145E-01    0.208E-01
RMM:   8    -0.963592495680E+02    0.49716E-03   -0.34809E-03  7448   0.190E-01    0.175E-01
RMM:   9    -0.963591229595E+02    0.12661E-03   -0.55666E-04  8071   0.844E-02    0.816E-02
RMM:  10    -0.963590393528E+02    0.83607E-04   -0.10358E-04  7099   0.366E-02    0.392E-02
RMM:  11    -0.963590053514E+02    0.34001E-04   -0.61263E-05  6445   0.257E-02    0.184E-02
RMM:  12    -0.963589989266E+02    0.64249E-05   -0.21714E-05  3876   0.180E-02
   8 F= -.96358999E+02 E0= -.96253734E+02  d E =-.766411E-02
 curvature:  10.44 expect dE= 0.492E-01 dE for cont linesearch  0.260E-01
 ZBRENT: bracketing found
 ZBRENT: interpolating
 opt :   8.8792  next Energy=   -96.369190 (dE=-0.179E-01)
 bond charge predicted
       N       E                     dE             d eps       ncg     rms          rms(c)
DAV:   1    -0.963564983531E+02    0.25070E-02   -0.93714E+00  7140   0.793E+00    0.300E-01
RMM:   2    -0.965442286096E+02   -0.18773E+00   -0.15128E-01  7199   0.156E+00    0.441E+00
RMM:   3    -0.963741364278E+02    0.17009E+00   -0.27424E-02  8391   0.555E-01    0.723E-01
RMM:   4    -0.963721882599E+02    0.19482E-02   -0.60880E-03  7233   0.309E-01    0.466E-01
RMM:   5    -0.963701139579E+02    0.20743E-02   -0.11381E-03  7215   0.117E-01    0.213E-01
RMM:   6    -0.963695885118E+02    0.52545E-03   -0.38573E-04  7187   0.654E-02    0.159E-01
RMM:   7    -0.963692826646E+02    0.30585E-03   -0.20827E-03  7228   0.136E-01    0.136E-01
RMM:   8    -0.963690418966E+02    0.24077E-03   -0.95009E-04  7884   0.981E-02    0.499E-02
RMM:   9    -0.963690252900E+02    0.16607E-04   -0.14550E-04  7241   0.439E-02    0.443E-02
RMM:  10    -0.963689831701E+02    0.42120E-04   -0.33593E-05  4523   0.222E-02    0.157E-02
RMM:  11    -0.963689781609E+02    0.50092E-05   -0.25604E-05  4023   0.182E-02
   9 F= -.96368978E+02 E0= -.96263494E+02  d E =-.176433E-01
 curvature:  -0.76 expect dE=-0.695E-03 dE for cont linesearch -0.249E-06
 trial: gam= 0.24015 g(F)=  0.911E-03 g(S)=  0.000E+00 ort =-0.359E-04 (trialstep = 0.300E+01)
 search vector abs. value=  0.112E-02
 bond charge predicted
       N       E                     dE             d eps       ncg     rms          rms(c)
DAV:   1    -0.963703826634E+02   -0.13995E-02   -0.59266E-01  7230   0.196E+00    0.932E-02
RMM:   2    -0.963733629147E+02   -0.29803E-02   -0.91154E-03  7198   0.365E-01    0.412E-01
RMM:   3    -0.963733887769E+02   -0.25862E-04   -0.13504E-03  9207   0.110E-01    0.574E-01
RMM:   4    -0.963712172017E+02    0.21716E-02   -0.33076E-04  7269   0.617E-02    0.115E-01
RMM:   5    -0.963711457541E+02    0.71448E-04   -0.12362E-04  6959   0.511E-02    0.583E-02
RMM:   6    -0.963711044479E+02    0.41306E-04   -0.23864E-05  4088   0.165E-02    0.410E-02
RMM:   7    -0.963710920953E+02    0.12353E-04   -0.99595E-05  7048   0.322E-02    0.420E-02
RMM:   8    -0.963710711006E+02    0.20995E-04   -0.10191E-04  7032   0.292E-02    0.214E-02
RMM:   9    -0.963710684093E+02    0.26913E-05   -0.13452E-05  3815   0.175E-02
  10 F= -.96371068E+02 E0= -.96265772E+02  d E =-.209025E-02
 trial-energy change:   -0.002090  1 .order   -0.002296   -0.002703   -0.001889
 step:   9.9484(harm=  9.9484)  dis= 0.00689  next Energy=   -96.373467 (dE=-0.449E-02)
 bond charge predicted
       N       E                     dE             d eps       ncg     rms          rms(c)
DAV:   1    -0.963692160709E+02    0.18550E-02   -0.31871E+00  7140   0.455E+00    0.227E-01
RMM:   2    -0.963959872665E+02   -0.26771E-01   -0.53757E-02  7199   0.929E-01    0.126E+00
RMM:   3    -0.963850714016E+02    0.10916E-01   -0.82291E-03  9236   0.256E-01    0.145E+00
RMM:   4    -0.963739231239E+02    0.11148E-01   -0.27034E-03  7244   0.189E-01    0.267E-01
RMM:   5    -0.963735203070E+02    0.40282E-03   -0.82396E-04  7185   0.121E-01    0.143E-01
RMM:   6    -0.963732537832E+02    0.26652E-03   -0.18033E-04  7221   0.416E-02    0.913E-02
RMM:   7    -0.963731886476E+02    0.65136E-04   -0.49191E-04  7390   0.671E-02    0.918E-02
RMM:   8    -0.963730767186E+02    0.11193E-03   -0.47189E-04  7508   0.641E-02    0.419E-02
RMM:   9    -0.963730624403E+02    0.14278E-04   -0.78678E-05  6797   0.369E-02    0.342E-02
RMM:  10    -0.963730509933E+02    0.11447E-04   -0.12594E-05  3867   0.144E-02    0.160E-02
RMM:  11    -0.963730486306E+02    0.23627E-05   -0.67541E-06  3793   0.137E-02
  11 F= -.96373049E+02 E0= -.96268260E+02  d E =-.407047E-02
 curvature:  -6.18 expect dE=-0.424E-02 dE for cont linesearch -0.340E-05
 trial: gam= 0.66243 g(F)=  0.687E-03 g(S)=  0.000E+00 ort = 0.248E-04 (trialstep = 0.406E+01)
 search vector abs. value=  0.121E-02
 bond charge predicted
       N       E                     dE             d eps       ncg     rms          rms(c)
DAV:   1    -0.963739955831E+02   -0.94459E-03   -0.11434E+00  7140   0.275E+00    0.117E-01
RMM:   2    -0.963785025635E+02   -0.45070E-02   -0.15695E-02  7200   0.526E-01    0.790E-01
RMM:   3    -0.963776086489E+02    0.89391E-03   -0.29288E-03  9316   0.168E-01    0.466E-01
RMM:   4    -0.963757586556E+02    0.18500E-02   -0.47886E-04  7256   0.940E-02    0.135E-01
RMM:   5    -0.963754857440E+02    0.27291E-03   -0.11292E-04  7105   0.397E-02    0.690E-02
RMM:   6    -0.963754382744E+02    0.47470E-04   -0.23603E-05  4147   0.176E-02    0.544E-02
RMM:   7    -0.963753974841E+02    0.40790E-04   -0.23463E-04  7557   0.443E-02    0.509E-02
RMM:   8    -0.963753624182E+02    0.35066E-04   -0.11082E-04  7122   0.327E-02    0.230E-02
RMM:   9    -0.963753613246E+02    0.10935E-05   -0.16998E-05  3890   0.183E-02
  12 F= -.96375361E+02 E0= -.96270554E+02  d E =-.231269E-02
 ZBRENT: can't locate minimum, use default step
 trial-energy change:   -0.002313  1 .order   -0.002537   -0.002854   -0.002221
 step:  16.2366(harm= 18.3013)  dis= 0.00584  next Energy=   -96.379482 (dE=-0.643E-02)
 bond charge predicted
       N       E                     dE             d eps       ncg     rms          rms(c)
DAV:   1    -0.963639279827E+02    0.11434E-01   -0.10283E+01  7140   0.827E+00    0.398E-01
RMM:   2    -0.964168457823E+02   -0.52918E-01   -0.16183E-01  7201   0.189E+00    0.289E+00
RMM:   3    -0.964041349526E+02    0.12711E-01   -0.33993E-02  7982   0.531E-01    0.156E+00
RMM:   4    -0.963826128115E+02    0.21522E-01   -0.62531E-03  7244   0.331E-01    0.484E-01
RMM:   5    -0.963791474419E+02    0.34654E-02   -0.14829E-03  7213   0.146E-01    0.231E-01
RMM:   6    -0.963785266285E+02    0.62081E-03   -0.28774E-04  7228   0.620E-02    0.164E-01
RMM:   7    -0.963781490205E+02    0.37761E-03   -0.13596E-03  7379   0.107E-01    0.157E-01
RMM:   8    -0.963777943853E+02    0.35464E-03   -0.13532E-03  7777   0.115E-01    0.903E-02
RMM:   9    -0.963777539249E+02    0.40460E-04   -0.27403E-04  7508   0.611E-02    0.640E-02
RMM:  10    -0.963777193695E+02    0.34555E-04   -0.41779E-05  5207   0.237E-02    0.262E-02
RMM:  11    -0.963777117818E+02    0.75877E-05   -0.14844E-05  3942   0.205E-02
  13 F= -.96377712E+02 E0= -.96272961E+02  d E =-.466315E-02
 curvature: -15.44 expect dE=-0.295E-02 dE for cont linesearch -0.447E-05
 trial: gam= 0.09652 g(F)=  0.191E-03 g(S)=  0.000E+00 ort = 0.187E-04 (trialstep = 0.649E+01)
 search vector abs. value=  0.206E-03
 bond charge predicted
       N       E                     dE             d eps       ncg     rms          rms(c)
DAV:   1    -0.963774497881E+02    0.26958E-03   -0.49496E-01  7365   0.190E+00    0.765E-02
RMM:   2    -0.963863245964E+02   -0.88748E-02   -0.87102E-03  7197   0.355E-01    0.106E+00
RMM:   3    -0.963782181592E+02    0.81064E-02   -0.12970E-03  7534   0.140E-01    0.108E-01
RMM:   4    -0.963783518607E+02   -0.13370E-03   -0.29094E-04  7287   0.733E-02    0.106E-01
RMM:   5    -0.963781802268E+02    0.17163E-03   -0.60161E-05  6214   0.304E-02    0.566E-02
RMM:   6    -0.963781591023E+02    0.21124E-04   -0.23880E-05  4207   0.185E-02    0.437E-02
RMM:   7    -0.963781572652E+02    0.18371E-05   -0.72951E-05  6827   0.314E-02
  14 F= -.96378157E+02 E0= -.96273369E+02  d E =-.445483E-03
 trial-energy change:   -0.000445  1 .order   -0.000629   -0.001253   -0.000006
 step:   6.5235(harm=  6.5235)  dis= 0.00323  next Energy=   -96.378341 (dE=-0.629E-03)
 bond charge predicted
       N       E                     dE             d eps       ncg     rms          rms(c)
DAV:   1    -0.963781418769E+02    0.17225E-04   -0.14050E-04  8355   0.558E-02    0.133E-02
RMM:   2    -0.963782420499E+02   -0.10017E-03   -0.39252E-05  5124   0.274E-02    0.119E-01
RMM:   3    -0.963781883004E+02    0.53750E-04   -0.17527E-05  4184   0.196E-02    0.695E-02
RMM:   4    -0.963781440402E+02    0.44260E-04   -0.11668E-05  4079   0.179E-02    0.172E-02
RMM:   5    -0.963781400636E+02    0.39765E-05   -0.32261E-06  3790   0.935E-03
  15 F= -.96378140E+02 E0= -.96273350E+02  d E =-.428282E-03
 curvature:  -3.48 expect dE=-0.483E-03 dE for cont linesearch -0.203E-05
 trial: gam= 0.76997 g(F)=  0.139E-03 g(S)=  0.000E+00 ort =-0.110E-04 (trialstep = 0.549E+01)
 search vector abs. value=  0.244E-03
 bond charge predicted
       N       E                     dE             d eps       ncg     rms          rms(c)
DAV:   1    -0.963779707891E+02    0.17325E-03   -0.41392E-01  7140   0.168E+00    0.145E-01
RMM:   2    -0.964001643551E+02   -0.22194E-01   -0.88065E-03  7245   0.334E-01    0.203E+00
RMM:   3    -0.963807612397E+02    0.19403E-01   -0.32827E-03  7241   0.204E-01    0.470E-01
RMM:   4    -0.963785495265E+02    0.22117E-02   -0.10124E-03  7178   0.127E-01    0.787E-02
RMM:   5    -0.963784691646E+02    0.80362E-04   -0.14382E-04  7166   0.487E-02    0.581E-02
RMM:   6    -0.963784258962E+02    0.43268E-04   -0.28244E-05  4512   0.207E-02    0.370E-02
RMM:   7    -0.963784212893E+02    0.46069E-05   -0.44137E-05  5400   0.265E-02
  16 F= -.96378421E+02 E0= -.96273673E+02  d E =-.281226E-03
 trial-energy change:   -0.000281  1 .order   -0.000430   -0.000715   -0.000146
 step:   6.8986(harm=  6.8986)  dis= 0.00566  next Energy=   -96.378589 (dE=-0.449E-03)
 bond charge predicted
       N       E                     dE             d eps       ncg     rms          rms(c)
DAV:   1    -0.963783508669E+02    0.75029E-04   -0.27565E-02  7695   0.439E-01    0.418E-02
RMM:   2    -0.963798523101E+02   -0.15014E-02   -0.64001E-04  7349   0.857E-02    0.497E-01
RMM:   3    -0.963785878908E+02    0.12644E-02   -0.23558E-04  7166   0.578E-02    0.135E-01
RMM:   4    -0.963784067529E+02    0.18114E-03   -0.86958E-05  6560   0.417E-02    0.407E-02
RMM:   5    -0.963783828462E+02    0.23907E-04   -0.18009E-05  4089   0.196E-02    0.192E-02
RMM:   6    -0.963783799424E+02    0.29037E-05   -0.61565E-06  3811   0.151E-02
  17 F= -.96378380E+02 E0= -.96273641E+02  d E =-.239879E-03
 curvature:  -6.46 expect dE=-0.958E-03 dE for cont linesearch -0.924E-05
 trial: gam= 1.08640 g(F)=  0.148E-03 g(S)=  0.000E+00 ort =-0.187E-04 (trialstep = 0.356E+01)
 search vector abs. value=  0.396E-03
 bond charge predicted
       N       E                     dE             d eps       ncg     rms          rms(c)
DAV:   1    -0.963781006245E+02    0.28222E-03   -0.27501E-01  7140   0.151E+00    0.625E-02
RMM:   2    -0.963810973330E+02   -0.29967E-02   -0.53568E-03  7202   0.271E-01    0.555E-01
RMM:   3    -0.963786752382E+02    0.24221E-02   -0.60060E-04  8107   0.948E-02    0.609E-02
RMM:   4    -0.963786297792E+02    0.45459E-04   -0.16490E-04  7123   0.557E-02    0.823E-02
RMM:   5    -0.963786079901E+02    0.21789E-04   -0.19387E-05  4216   0.157E-02    0.591E-02
RMM:   6    -0.963785764711E+02    0.31519E-04   -0.19041E-05  4042   0.227E-02    0.554E-02
RMM:   7    -0.963785668656E+02    0.96056E-05   -0.50778E-05  5884   0.241E-02
  18 F= -.96378567E+02 E0= -.96273947E+02  d E =-.186923E-03
 trial-energy change:   -0.000187  1 .order   -0.000272   -0.000456   -0.000088
 step:   4.4119(harm=  4.4119)  dis= 0.00390  next Energy=   -96.378662 (dE=-0.282E-03)
 bond charge predicted
       N       E                     dE             d eps       ncg     rms          rms(c)
DAV:   1    -0.963785109206E+02    0.65551E-04   -0.15833E-02  7275   0.366E-01    0.233E-02
RMM:   2    -0.963790231218E+02   -0.51220E-03   -0.41517E-04  7361   0.714E-02    0.224E-01
RMM:   3    -0.963785849368E+02    0.43819E-03   -0.65177E-05  6296   0.328E-02    0.652E-02
RMM:   4    -0.963785428876E+02    0.42049E-04   -0.42278E-05  5229   0.298E-02    0.324E-02
RMM:   5    -0.963785446084E+02   -0.17208E-05   -0.87463E-06  3924   0.137E-02
  19 F= -.96378545E+02 E0= -.96273993E+02  d E =-.164666E-03
 curvature:  -6.82 expect dE=-0.438E-03 dE for cont linesearch -0.745E-05
 trial: gam= 0.42609 g(F)=  0.642E-04 g(S)=  0.000E+00 ort =-0.208E-04 (trialstep = 0.373E+01)
 search vector abs. value=  0.118E-03
 bond charge predicted
       N       E                     dE             d eps       ncg     rms          rms(c)
DAV:   1    -0.963785557472E+02   -0.12860E-04   -0.84094E-02  7560   0.830E-01    0.825E-02
RMM:   2    -0.963859844472E+02   -0.74287E-02   -0.24308E-03  7573   0.160E-01    0.111E+00
RMM:   3    -0.963792689181E+02    0.67155E-02   -0.99016E-04  7234   0.110E-01    0.243E-01
RMM:   4    -0.963787196977E+02    0.54922E-03   -0.26822E-04  7100   0.750E-02    0.614E-02
RMM:   5    -0.963786967151E+02    0.22983E-04   -0.43400E-05  5236   0.281E-02    0.357E-02
RMM:   6    -0.963786786800E+02    0.18035E-04   -0.16368E-05  3924   0.220E-02    0.179E-02
RMM:   7    -0.963786802421E+02   -0.15621E-05   -0.22101E-05  4183   0.189E-02
  20 F= -.96378680E+02 E0= -.96274100E+02  d E =-.135634E-03
 ZBRENT: can't locate minimum, use default step
 trial-energy change:   -0.000136  1 .order   -0.000201   -0.000206   -0.000195
 step:  14.9156(harm= 67.1402)  dis= 0.00311  next Energy=   -96.380403 (dE=-0.186E-02)
 bond charge predicted
       N       E                     dE             d eps       ncg     rms          rms(c)
DAV:   1    -0.963777470165E+02    0.93166E-03   -0.75487E-01  7140   0.249E+00    0.223E-01
RMM:   2    -0.964430673304E+02   -0.65320E-01   -0.19824E-02  7458   0.457E-01    0.331E+00
RMM:   3    -0.963822086169E+02    0.60859E-01   -0.80313E-03  7228   0.301E-01    0.568E-01
RMM:   4    -0.963792107106E+02    0.29979E-02   -0.21207E-03  7196   0.187E-01    0.178E-01
RMM:   5    -0.963790153677E+02    0.19534E-03   -0.30407E-04  7172   0.709E-02    0.940E-02
RMM:   6    -0.963789068537E+02    0.10851E-03   -0.10132E-04  7153   0.368E-02    0.564E-02
RMM:   7    -0.963788870533E+02    0.19800E-04   -0.14928E-04  7119   0.413E-02    0.666E-02
RMM:   8    -0.963788419127E+02    0.45141E-04   -0.43226E-05  5277   0.215E-02    0.266E-02
RMM:   9    -0.963788393540E+02    0.25587E-05   -0.10781E-05  3861   0.182E-02
  21 F= -.96378839E+02 E0= -.96274349E+02  d E =-.294746E-03
 curvature: -23.08 expect dE=-0.346E-02 dE for cont linesearch -0.401E-04
 trial: gam= 1.40602 g(F)=  0.150E-03 g(S)=  0.000E+00 ort = 0.143E-04 (trialstep = 0.166E+01)
 search vector abs. value=  0.424E-03
 bond charge predicted
       N       E                     dE             d eps       ncg     rms          rms(c)
DAV:   1    -0.963789968414E+02   -0.15493E-03   -0.60123E-02  7170   0.634E-01    0.974E-02
RMM:   2    -0.963947285891E+02   -0.15732E-01   -0.27603E-03  7368   0.148E-01    0.162E+00
RMM:   3    -0.963794633485E+02    0.15265E-01   -0.16906E-03  7224   0.139E-01    0.245E-01
RMM:   4    -0.963790425503E+02    0.42080E-03   -0.41216E-04  7115   0.913E-02    0.359E-02
RMM:   5    -0.963790627036E+02   -0.20153E-04   -0.51407E-05  5505   0.320E-02    0.394E-02
RMM:   6    -0.963790408717E+02    0.21832E-04   -0.14401E-05  4030   0.200E-02    0.161E-02
RMM:   7    -0.963790442271E+02   -0.33554E-05   -0.14022E-05  3943   0.151E-02
  22 F= -.96379044E+02 E0= -.96274476E+02  d E =-.204873E-03
 ZBRENT: can't locate minimum, use default step
 trial-energy change:   -0.000205  1 .order   -0.000251   -0.000283   -0.000218
 step:   6.6548(harm=  7.2775)  dis= 0.00139  next Energy=   -96.379459 (dE=-0.620E-03)
 bond charge predicted
       N       E                     dE             d eps       ncg     rms          rms(c)
DAV:   1    -0.963783889399E+02    0.65193E-03   -0.54295E-01  7140   0.191E+00    0.276E-01
RMM:   2    -0.965191593663E+02   -0.14077E+00   -0.22262E-02  7317   0.419E-01    0.489E+00
RMM:   3    -0.963851883519E+02    0.13397E+00   -0.15161E-02  7203   0.380E-01    0.631E-01
RMM:   4    -0.963788369551E+02    0.63514E-02   -0.41846E-03  7182   0.247E-01    0.116E-01
RMM:   5    -0.963788393516E+02   -0.23966E-05   -0.33883E-04  7381   0.748E-02    0.765E-02
RMM:   6    -0.963787883394E+02    0.51012E-04   -0.10111E-04  7050   0.343E-02    0.535E-02
RMM:   7    -0.963787734745E+02    0.14865E-04   -0.96533E-05  6647   0.321E-02    0.377E-02
RMM:   8    -0.963787655120E+02    0.79626E-05   -0.25495E-05  4257   0.211E-02
  23 F= -.96378766E+02 E0= -.96274144E+02  d E =0.738421E-04
 curvature:  -8.96 expect dE=-0.497E-02 dE for cont linesearch -0.171E-03
 ZBRENT: interpolating
 opt :   4.6268  next Energy=   -96.378857 (dE=-0.173E-04)
 bond charge predicted
       N       E                     dE             d eps       ncg     rms          rms(c)
DAV:   1    -0.963788773020E+02   -0.10383E-03   -0.89996E-02  7170   0.777E-01    0.901E-02
RMM:   2    -0.963910008570E+02   -0.12124E-01   -0.29941E-03  7450   0.168E-01    0.132E+00
RMM:   3    -0.963794665874E+02    0.11534E-01   -0.13961E-03  7236   0.129E-01    0.237E-01
RMM:   4    -0.963789843338E+02    0.48225E-03   -0.34503E-04  7127   0.811E-02    0.320E-02
RMM:   5    -0.963789771581E+02    0.71757E-05   -0.51995E-05  5502   0.324E-02
  24 F= -.96378977E+02 E0= -.96274313E+02  d E =-.137804E-03
 curvature:  -4.79 expect dE=-0.117E-02 dE for cont linesearch -0.155E-04
 trial: gam= 0.00000 g(F)=  0.244E-03 g(S)=  0.000E+00 ort =-0.371E-04 (trialstep = 0.226E+01)
 search vector abs. value=  0.244E-03
 bond charge predicted
       N       E                     dE             d eps       ncg     rms          rms(c)
DAV:   1    -0.963792221067E+02   -0.23777E-03   -0.68035E-02  7335   0.790E-01    0.102E-01
RMM:   2    -0.963982379650E+02   -0.19016E-01   -0.43430E-03  7453   0.197E-01    0.163E+00
RMM:   3    -0.963798145491E+02    0.18423E-01   -0.18238E-03  7234   0.150E-01    0.260E-01
RMM:   4    -0.963793797353E+02    0.43481E-03   -0.42745E-04  7159   0.873E-02    0.964E-02
RMM:   5    -0.963793243242E+02    0.55411E-04   -0.10070E-04  6674   0.445E-02    0.656E-02
RMM:   6    -0.963793013687E+02    0.22956E-04   -0.21441E-05  4360   0.201E-02    0.420E-02
RMM:   7    -0.963792984334E+02    0.29353E-05   -0.14716E-05  4042   0.192E-02
  25 F= -.96379298E+02 E0= -.96274729E+02  d E =-.321275E-03
 trial-energy change:   -0.000321  1 .order   -0.000293   -0.000549   -0.000037
 step:   2.4187(harm=  2.4187)  dis= 0.00182  next Energy=   -96.379272 (dE=-0.294E-03)
 bond charge predicted
       N       E                     dE             d eps       ncg     rms          rms(c)
DAV:   1    -0.963792974939E+02    0.38748E-05   -0.41428E-04  8160   0.668E-02    0.136E-02
RMM:   2    -0.963793917526E+02   -0.94259E-04   -0.42001E-05  5262   0.266E-02    0.107E-01
RMM:   3    -0.963793692250E+02    0.22528E-04   -0.18713E-05  4300   0.190E-02    0.861E-02
RMM:   4    -0.963793007422E+02    0.68483E-04   -0.13813E-05  4124   0.181E-02    0.162E-02
RMM:   5    -0.963792965147E+02    0.42275E-05   -0.34595E-06  3828   0.980E-03
  26 F= -.96379297E+02 E0= -.96274745E+02  d E =-.319357E-03
 curvature:  -1.21 expect dE=-0.442E-04 dE for cont linesearch -0.233E-06
 trial: gam= 0.12205 g(F)=  0.366E-04 g(S)=  0.000E+00 ort = 0.685E-05 (trialstep = 0.229E+01)
 search vector abs. value=  0.419E-04
 reached required accuracy - stopping structural energy minimisation
 writing wavefunctions
