 running on   35 total cores
 distrk:  each k-point on   35 cores,    1 groups
 distr:  one band on    1 cores,   35 groups
 using from now: INCAR     
 vasp.5.4.1 24Jun15 (build Oct 26 2018 17:15:27) complex                        
  
 POSCAR found type information on POSCAR  O 
 POSCAR found :  1 types and       2 ions
 scaLAPACK will be used

 ----------------------------------------------------------------------------- 
|                                                                             |
|           W    W    AA    RRRRR   N    N  II  N    N   GGGG   !!!           |
|           W    W   A  A   R    R  NN   N  II  NN   N  G    G  !!!           |
|           W    W  A    A  R    R  N N  N  II  N N  N  G       !!!           |
|           W WW W  AAAAAA  RRRRR   N  N N  II  N  N N  G  GGG   !            |
|           WW  WW  A    A  R   R   N   NN  II  N   NN  G    G                |
|           W    W  A    A  R    R  N    N  II  N    N   GGGG   !!!           |
|                                                                             |
|      For optimal performance we recommend to set                            |
|        NCORE= 4 - approx SQRT( number of cores)                             |
|      NCORE specifies how many cores store one orbital (NPAR=cpu/NCORE).     |
|      This setting can  greatly improve the performance of VASP for DFT.     |
|      The default, NPAR=number of cores might be grossly inefficient         |
|      on modern multi-core architectures or massively parallel machines.     |
|      Do your own testing !!!!                                               |
|      Unfortunately you need to use the default for GW and RPA calculations. |
|      (for HF NCORE is supported but not extensively tested yet)             |
|                                                                             |
 ----------------------------------------------------------------------------- 

 LDA part: xc-table for Ceperly-Alder, standard interpolation
 POSCAR, INCAR and KPOINTS ok, starting setup
 WARNING: small aliasing (wrap around) errors must be expected
 FFT: planning ...
 WAVECAR not read
 entering main loop
       N       E                     dE             d eps       ncg     rms          rms(c)
DAV:   1     0.837261246556E+02    0.83726E+02   -0.22261E+03   105   0.134E+02
DAV:   2     0.847051351517E+01   -0.75256E+02   -0.75256E+02   105   0.490E+01
DAV:   3    -0.556810602233E+01   -0.14039E+02   -0.14039E+02   105   0.121E+01
DAV:   4    -0.578945540791E+01   -0.22135E+00   -0.21400E+00    70   0.153E+00
DAV:   5    -0.580115311002E+01   -0.11698E-01   -0.11157E-01   105   0.310E-01    0.582E+00
DAV:   6    -0.515819317419E+01    0.64296E+00   -0.12497E+00    70   0.276E+00    0.239E+00
DAV:   7    -0.505311197775E+01    0.10508E+00   -0.37514E-01    70   0.151E+00    0.637E-01
DAV:   8    -0.505054651420E+01    0.25655E-02   -0.28375E-02    70   0.433E-01    0.145E-01
DAV:   9    -0.505190885952E+01   -0.13623E-02   -0.21205E-03   140   0.128E-01    0.570E-02
DAV:  10    -0.505290971217E+01   -0.10009E-02   -0.41803E-04    70   0.536E-02    0.113E-02
DAV:  11    -0.505450893158E+01   -0.15992E-02   -0.45429E-04    70   0.435E-02    0.469E-03
DAV:  12    -0.505532473616E+01   -0.81580E-03   -0.21391E-04    70   0.244E-02    0.308E-03
DAV:  13    -0.505575950375E+01   -0.43477E-03   -0.11118E-04    70   0.132E-02    0.136E-03
DAV:  14    -0.505583230755E+01   -0.72804E-04   -0.15917E-05    70   0.517E-03    0.120E-03
DAV:  15    -0.505587208519E+01   -0.39778E-04   -0.37773E-06    70   0.436E-03    0.667E-04
DAV:  16    -0.505587932979E+01   -0.72446E-05   -0.93975E-07    70   0.168E-03
   1 F= -.50558793E+01 E0= -.50502374E+01  d E =-.505588E+01
 curvature:   0.00 expect dE= 0.000E+00 dE for cont linesearch  0.000E+00
 trial: gam= 0.00000 g(F)=  0.169E+02 g(S)=  0.000E+00 ort = 0.000E+00 (trialstep = 0.100E+01)
 search vector abs. value=  0.169E+02
 bond charge predicted
       N       E                     dE             d eps       ncg     rms          rms(c)
DAV:   1    -0.817558241935E+01   -0.31197E+01   -0.65214E+02    70   0.695E+01    0.765E+00
DAV:   2    -0.842959198517E+01   -0.25401E+00   -0.16855E+01   105   0.102E+01    0.569E+00
DAV:   3    -0.816635114653E+01    0.26324E+00   -0.69204E+00    70   0.485E+00    0.356E+00
DAV:   4    -0.804907637041E+01    0.11727E+00   -0.10554E+00    70   0.196E+00    0.116E+00
DAV:   5    -0.805050968144E+01   -0.14333E-02   -0.66609E-02    70   0.806E-01    0.233E-01
DAV:   6    -0.805046827099E+01    0.41410E-04   -0.30062E-03   105   0.139E-01    0.128E-01
DAV:   7    -0.805098776020E+01   -0.51949E-03   -0.14067E-03    70   0.965E-02    0.266E-02
DAV:   8    -0.805168337982E+01   -0.69562E-03   -0.15492E-04    70   0.324E-02    0.106E-02
DAV:   9    -0.805282318433E+01   -0.11398E-02   -0.23099E-04    70   0.321E-02    0.558E-03
DAV:  10    -0.805356951076E+01   -0.74633E-03   -0.16220E-04    70   0.227E-02    0.430E-03
DAV:  11    -0.805387202206E+01   -0.30251E-03   -0.35102E-05    70   0.111E-02    0.241E-03
DAV:  12    -0.805395494947E+01   -0.82927E-04   -0.60730E-06    70   0.610E-03    0.200E-03
DAV:  13    -0.805399956161E+01   -0.44612E-04   -0.27804E-06    70   0.341E-03    0.472E-04
DAV:  14    -0.805400582033E+01   -0.62587E-05   -0.23159E-07    70   0.895E-04
   2 F= -.80540058E+01 E0= -.80483639E+01  d E =-.299813E+01
 trial-energy change:   -2.998126  1 .order   -7.120534  -16.913374    2.672307
 step:   0.5511(harm=  0.8636)  dis= 0.22264  next Energy=    -9.026558 (dE=-0.397E+01)
 bond charge predicted
       N       E                     dE             d eps       ncg     rms          rms(c)
DAV:   1    -0.870662872174E+01   -0.65263E+00   -0.17338E+02    70   0.380E+01    0.314E+00
DAV:   2    -0.876460887337E+01   -0.57980E-01   -0.19773E+00    70   0.441E+00    0.195E+00
DAV:   3    -0.872741506132E+01    0.37194E-01   -0.36849E-01   140   0.140E+00    0.106E+00
DAV:   4    -0.872817526662E+01   -0.76021E-03   -0.10538E-01   140   0.814E-01    0.386E-01
DAV:   5    -0.872584404822E+01    0.23312E-02   -0.80976E-03    70   0.221E-01    0.186E-01
DAV:   6    -0.872623945444E+01   -0.39541E-03   -0.31037E-03    70   0.133E-01    0.289E-02
DAV:   7    -0.872657048100E+01   -0.33103E-03   -0.11847E-04    70   0.285E-02    0.969E-03
DAV:   8    -0.872696167110E+01   -0.39119E-03   -0.65369E-05    70   0.180E-02    0.347E-03
DAV:   9    -0.872723959209E+01   -0.27792E-03   -0.42675E-05    70   0.124E-02    0.284E-03
DAV:  10    -0.872737644220E+01   -0.13685E-03   -0.25649E-05    70   0.921E-03    0.190E-03
DAV:  11    -0.872741037883E+01   -0.33937E-04   -0.33181E-06    70   0.314E-03    0.605E-04
DAV:  12    -0.872741723300E+01   -0.68542E-05   -0.17767E-07   140   0.105E-03
   3 F= -.87274172E+01 E0= -.87217753E+01  d E =-.367154E+01
 curvature:   1.83 expect dE= 0.151E-01 dE for cont linesearch  0.151E-01
 ZBRENT: interpolating
 opt :   0.6062  next Energy=    -8.737715 (dE=-0.368E+01)
 bond charge predicted
       N       E                     dE             d eps       ncg     rms          rms(c)
DAV:   1    -0.872994475173E+01   -0.25344E-02   -0.25911E+00    70   0.464E+00    0.466E-01
DAV:   2    -0.873079689262E+01   -0.85214E-03   -0.49108E-02   105   0.614E-01    0.272E-01
DAV:   3    -0.873012979928E+01    0.66709E-03   -0.11062E-02   105   0.238E-01    0.162E-01
DAV:   4    -0.872989711065E+01    0.23269E-03   -0.15843E-03    70   0.102E-01    0.429E-02
DAV:   5    -0.872989790401E+01   -0.79336E-06   -0.13017E-04    70   0.299E-02    0.172E-02
DAV:   6    -0.872990365926E+01   -0.57552E-05   -0.10445E-05    70   0.108E-02
   4 F= -.87299037E+01 E0= -.87242618E+01  d E =-.367402E+01
 curvature:  -1.25 expect dE=-0.522E-02 dE for cont linesearch -0.522E-02
 ZBRENT: interpolating
 opt :   0.5833  next Energy=    -8.732951 (dE=-0.368E+01)
 bond charge predicted
       N       E                     dE             d eps       ncg     rms          rms(c)
DAV:   1    -0.873312905213E+01   -0.32311E-02   -0.45049E-01    70   0.194E+00    0.189E-01
DAV:   2    -0.873332879743E+01   -0.19975E-03   -0.78034E-03   105   0.245E-01    0.109E-01
DAV:   3    -0.873318772208E+01    0.14108E-03   -0.16296E-03   105   0.919E-02    0.653E-02
DAV:   4    -0.873314606489E+01    0.41657E-04   -0.30984E-04    70   0.486E-02    0.172E-02
DAV:   5    -0.873314670138E+01   -0.63650E-06   -0.24787E-05    70   0.133E-02
   5 F= -.87331467E+01 E0= -.87275048E+01  d E =-.367727E+01
 curvature:  -0.73 expect dE=-0.749E-05 dE for cont linesearch -0.749E-05
 ZBRENT: interpolating
 opt :   0.5822  next Energy=    -8.733155 (dE=-0.368E+01)
 bond charge predicted
       N       E                     dE             d eps       ncg     rms          rms(c)
DAV:   1    -0.873315516659E+01   -0.91017E-05   -0.11441E-03    70   0.977E-02    0.953E-03
DAV:   2    -0.873315576522E+01   -0.59864E-06   -0.19157E-05    70   0.126E-02
   6 F= -.87331558E+01 E0= -.87275139E+01  d E =-.367728E+01
 curvature:  -0.77 expect dE=-0.170E-08 dE for cont linesearch -0.170E-08
 trial: gam= 0.00000 g(F)=  0.222E-08 g(S)=  0.000E+00 ort =-0.194E-03 (trialstep = 0.916E+00)
 search vector abs. value=  0.232E-08
 reached required accuracy - stopping structural energy minimisation
