 running on   18 total cores
 distrk:  each k-point on   18 cores,    1 groups
 distr:  one band on    1 cores,   18 groups
 using from now: INCAR     
 vasp.5.4.1 24Jun15 (build Oct 26 2018 17:15:27) complex                        
  
 POSCAR found type information on POSCAR  Pt O 
 POSCAR found :  2 types and      13 ions
 scaLAPACK will be used

 ----------------------------------------------------------------------------- 
|                                                                             |
|           W    W    AA    RRRRR   N    N  II  N    N   GGGG   !!!           |
|           W    W   A  A   R    R  NN   N  II  NN   N  G    G  !!!           |
|           W    W  A    A  R    R  N N  N  II  N N  N  G       !!!           |
|           W WW W  AAAAAA  RRRRR   N  N N  II  N  N N  G  GGG   !            |
|           WW  WW  A    A  R   R   N   NN  II  N   NN  G    G                |
|           W    W  A    A  R    R  N    N  II  N    N   GGGG   !!!           |
|                                                                             |
|      For optimal performance we recommend to set                            |
|        NCORE= 4 - approx SQRT( number of cores)                             |
|      NCORE specifies how many cores store one orbital (NPAR=cpu/NCORE).     |
|      This setting can  greatly improve the performance of VASP for DFT.     |
|      The default, NPAR=number of cores might be grossly inefficient         |
|      on modern multi-core architectures or massively parallel machines.     |
|      Do your own testing !!!!                                               |
|      Unfortunately you need to use the default for GW and RPA calculations. |
|      (for HF NCORE is supported but not extensively tested yet)             |
|                                                                             |
 ----------------------------------------------------------------------------- 

 LDA part: xc-table for Ceperly-Alder, standard interpolation
 POSCAR, INCAR and KPOINTS ok, starting setup
 WARNING: small aliasing (wrap around) errors must be expected
 FFT: planning ...
 WAVECAR not read
 entering main loop
       N       E                     dE             d eps       ncg     rms          rms(c)
DAV:   1     0.127643291138E+04    0.12764E+04   -0.51052E+04  7380   0.118E+03
DAV:   2     0.387897057099E+02   -0.12376E+04   -0.11048E+04  7380   0.399E+02
DAV:   3    -0.771114121712E+02   -0.11590E+03   -0.10905E+03  9846   0.108E+02
DAV:   4    -0.812948966406E+02   -0.41835E+01   -0.41395E+01  8784   0.263E+01
DAV:   5    -0.813894168055E+02   -0.94520E-01   -0.94436E-01  9090   0.307E+00    0.181E+01
RMM:   6    -0.120440716007E+03   -0.39051E+02   -0.20158E+01  7412   0.195E+01    0.379E+01
RMM:   7    -0.109583474964E+03    0.10857E+02   -0.23579E+01  7475   0.138E+01    0.315E+01
RMM:   8    -0.780679054193E+02    0.31516E+02   -0.73103E+00  7430   0.861E+00    0.156E+01
RMM:   9    -0.732820692228E+02    0.47858E+01   -0.24817E+00  7434   0.519E+00    0.695E+00
RMM:  10    -0.731351655132E+02    0.14690E+00   -0.64681E-01  7424   0.304E+00    0.935E+00
RMM:  11    -0.727531712935E+02    0.38199E+00   -0.30044E-01  7439   0.179E+00    0.433E+00
RMM:  12    -0.726289475034E+02    0.12422E+00   -0.22823E-01  7424   0.182E+00    0.374E+00
RMM:  13    -0.724923935676E+02    0.13655E+00   -0.69067E-02  7421   0.106E+00    0.144E+00
RMM:  14    -0.725576123772E+02   -0.65219E-01   -0.96759E-02  7427   0.117E+00    0.282E+00
RMM:  15    -0.724921725622E+02    0.65440E-01   -0.33366E-02  7415   0.631E-01    0.169E+00
RMM:  16    -0.724768586157E+02    0.15314E-01   -0.48245E-03  7425   0.289E-01    0.393E-01
RMM:  17    -0.724763504747E+02    0.50814E-03   -0.26581E-03  7419   0.203E-01    0.457E-01
RMM:  18    -0.724756932721E+02    0.65720E-03   -0.31670E-03  7423   0.201E-01    0.366E-01
RMM:  19    -0.724753218693E+02    0.37140E-03   -0.36304E-04  7394   0.768E-02    0.270E-01
RMM:  20    -0.724751173546E+02    0.20451E-03   -0.31394E-04  7349   0.659E-02    0.127E-01
RMM:  21    -0.724752946836E+02   -0.17733E-03   -0.27085E-04  7329   0.605E-02    0.108E-01
RMM:  22    -0.724753985891E+02   -0.10391E-03   -0.50973E-05  5848   0.229E-02    0.889E-02
RMM:  23    -0.724756331171E+02   -0.23453E-03   -0.10979E-04  6196   0.300E-02    0.423E-02
RMM:  24    -0.724759484038E+02   -0.31529E-03   -0.17483E-04  6461   0.343E-02    0.378E-02
RMM:  25    -0.724760574769E+02   -0.10907E-03   -0.43659E-05  5587   0.151E-02    0.307E-02
RMM:  26    -0.724761297069E+02   -0.72230E-04   -0.13218E-05  4852   0.102E-02    0.114E-02
RMM:  27    -0.724761854830E+02   -0.55776E-04   -0.70176E-06  4602   0.810E-03    0.367E-02
RMM:  28    -0.724761839488E+02    0.15342E-05   -0.16757E-06  4185   0.544E-03
   1 F= -.72476184E+02 E0= -.72397911E+02  d E =-.724762E+02
 curvature:   0.00 expect dE= 0.000E+00 dE for cont linesearch  0.000E+00
 trial: gam= 0.00000 g(F)=  0.185E+00 g(S)=  0.000E+00 ort = 0.000E+00 (trialstep = 0.100E+01)
 search vector abs. value=  0.185E+00
 bond charge predicted
       N       E                     dE             d eps       ncg     rms          rms(c)
DAV:   1    -0.726472314648E+02   -0.17105E+00   -0.96571E+00  8406   0.941E+00    0.460E-01
RMM:   2    -0.726735380072E+02   -0.26307E-01   -0.16411E-01  7439   0.130E+00    0.926E-01
RMM:   3    -0.726772520986E+02   -0.37141E-02   -0.11839E-02  8391   0.417E-01    0.126E+00
RMM:   4    -0.726671920814E+02    0.10060E-01   -0.50831E-03  7431   0.207E-01    0.884E-01
RMM:   5    -0.726644343404E+02    0.27577E-02   -0.15937E-03  7436   0.155E-01    0.525E-01
RMM:   6    -0.726638385493E+02    0.59579E-03   -0.92632E-04  7430   0.107E-01    0.511E-01
RMM:   7    -0.726627482674E+02    0.10903E-02   -0.16402E-03  7409   0.140E-01    0.224E-01
RMM:   8    -0.726621317331E+02    0.61653E-03   -0.74042E-04  7424   0.938E-02    0.128E-01
RMM:   9    -0.726620605978E+02    0.71135E-04   -0.10415E-04  7247   0.435E-02    0.911E-02
RMM:  10    -0.726620132021E+02    0.47396E-04   -0.34812E-05  5502   0.219E-02    0.527E-02
RMM:  11    -0.726620217391E+02   -0.85370E-05   -0.27067E-05  5061   0.193E-02
   2 F= -.72662022E+02 E0= -.72584556E+02  d E =-.185838E+00
 ZBRENT: can't locate minimum, use default step
 trial-energy change:   -0.185838  1 .order   -0.186457   -0.185455   -0.187459
 step:   4.0000(harm=  4.0000)  dis= 0.06018  next Energy=   -73.234036 (dE=-0.758E+00)
 bond charge predicted
       N       E                     dE             d eps       ncg     rms          rms(c)
DAV:   1    -0.730541371158E+02   -0.39212E+00   -0.87070E+01  7380   0.285E+01    0.143E+00
RMM:   2    -0.734397588657E+02   -0.38562E+00   -0.18290E+00  7436   0.504E+00    0.427E+00
RMM:   3    -0.733181459047E+02    0.12161E+00   -0.16684E-01  8715   0.132E+00    0.272E+00
RMM:   4    -0.732439903848E+02    0.74156E-01   -0.49426E-02  7434   0.830E-01    0.176E+00
RMM:   5    -0.732327890073E+02    0.11201E-01   -0.92703E-03  7458   0.304E-01    0.147E+00
RMM:   6    -0.732337378595E+02   -0.94885E-03   -0.11455E-02  7422   0.356E-01    0.122E+00
RMM:   7    -0.732187088282E+02    0.15029E-01   -0.91996E-03  7424   0.316E-01    0.790E-01
RMM:   8    -0.732143244007E+02    0.43844E-02   -0.79504E-03  7427   0.288E-01    0.424E-01
RMM:   9    -0.732129646575E+02    0.13597E-02   -0.11391E-03  7399   0.141E-01    0.209E-01
RMM:  10    -0.732123669220E+02    0.59774E-03   -0.35272E-04  7391   0.749E-02    0.115E-01
RMM:  11    -0.732121703761E+02    0.19655E-03   -0.42860E-04  7398   0.666E-02    0.425E-02
RMM:  12    -0.732121538552E+02    0.16521E-04   -0.82331E-05  7026   0.350E-02    0.309E-02
RMM:  13    -0.732121914240E+02   -0.37569E-04   -0.93720E-06  4522   0.115E-02    0.204E-02
RMM:  14    -0.732122444478E+02   -0.53024E-04   -0.53839E-06  4429   0.102E-02    0.179E-02
RMM:  15    -0.732123823760E+02   -0.13793E-03   -0.15637E-05  4895   0.116E-02    0.107E-02
RMM:  16    -0.732125270553E+02   -0.14468E-03   -0.15741E-05  4877   0.950E-03    0.385E-02
RMM:  17    -0.732125581631E+02   -0.31108E-04   -0.34666E-06  4437   0.719E-03    0.227E-02
RMM:  18    -0.732126015660E+02   -0.43403E-04   -0.74668E-06  4537   0.653E-03    0.246E-02
RMM:  19    -0.732126760855E+02   -0.74519E-04   -0.13618E-05  4804   0.839E-03    0.587E-02
RMM:  20    -0.732126640597E+02    0.12026E-04   -0.18861E-06  4040   0.587E-03    0.485E-02
RMM:  21    -0.732126563201E+02    0.77396E-05   -0.77995E-07  3127   0.311E-03
   3 F= -.73212656E+02 E0= -.73137414E+02  d E =-.736472E+00
 curvature:  -3.02 expect dE=-0.524E+00 dE for cont linesearch -0.516E+00
 ZBRENT: increasing intervall
 opt :  10.0000  next Energy=   -74.226404 (dE=-0.175E+01)
 bond charge predicted
       N       E                     dE             d eps       ncg     rms          rms(c)
DAV:   1    -0.731848745518E+02    0.27790E-01   -0.34895E+02  7452   0.585E+01    0.310E+00
RMM:   2    -0.779113652515E+02   -0.47265E+01   -0.11600E+01  7411   0.124E+01    0.140E+01
RMM:   3    -0.745528026685E+02    0.33586E+01   -0.10695E+00  7925   0.322E+00    0.526E+00
RMM:   4    -0.741025609538E+02    0.45024E+00   -0.21956E-01  7430   0.181E+00    0.171E+00
RMM:   5    -0.741258477066E+02   -0.23287E-01   -0.58301E-02  7430   0.807E-01    0.299E+00
RMM:   6    -0.740661745941E+02    0.59673E-01   -0.20703E-02  7421   0.551E-01    0.196E+00
RMM:   7    -0.740430198679E+02    0.23155E-01   -0.57219E-02  7414   0.778E-01    0.952E-01
RMM:   8    -0.740452497214E+02   -0.22299E-02   -0.32641E-02  7421   0.696E-01    0.117E+00
RMM:   9    -0.740313058207E+02    0.13944E-01   -0.39532E-03  7454   0.243E-01    0.574E-01
RMM:  10    -0.740275656743E+02    0.37401E-02   -0.98495E-04  7406   0.123E-01    0.287E-01
RMM:  11    -0.740257455405E+02    0.18201E-02   -0.21599E-03  7404   0.158E-01    0.911E-02
RMM:  12    -0.740253249637E+02    0.42058E-03   -0.43331E-04  7391   0.855E-02    0.587E-02
RMM:  13    -0.740251934444E+02    0.13152E-03   -0.68781E-05  6859   0.280E-02    0.463E-02
RMM:  14    -0.740250595348E+02    0.13391E-03   -0.24349E-05  4976   0.186E-02    0.286E-02
RMM:  15    -0.740250277094E+02    0.31825E-04   -0.25551E-05  5205   0.176E-02    0.209E-02
RMM:  16    -0.740250867724E+02   -0.59063E-04   -0.91966E-06  4554   0.124E-02    0.181E-02
RMM:  17    -0.740254543375E+02   -0.36757E-03   -0.41763E-05  5947   0.170E-02    0.728E-02
RMM:  18    -0.740254526438E+02    0.16937E-05   -0.10537E-05  4582   0.100E-02
   4 F= -.74025453E+02 E0= -.73954983E+02  d E =-.154927E+01
 curvature:  -5.92 expect dE=-0.265E+00 dE for cont linesearch -0.136E+00
 ZBRENT: increasing intervall
 opt :  22.0000  next Energy=   -73.455413 (dE=-0.979E+00)
 bond charge predicted
       N       E                     dE             d eps       ncg     rms          rms(c)
DAV:   1    -0.652909900253E+02    0.87345E+01   -0.13592E+03  7380   0.118E+02    0.806E+00
RMM:   2    -0.111325263939E+03   -0.46034E+02   -0.88325E+01  7507   0.318E+01    0.319E+01
RMM:   3    -0.754140430668E+02    0.35911E+02   -0.10115E+01  7592   0.103E+01    0.174E+01
RMM:   4    -0.695911436104E+02    0.58229E+01   -0.22534E+00  7415   0.563E+00    0.746E+00
RMM:   5    -0.694054222166E+02    0.18572E+00   -0.37022E-01  7742   0.212E+00    0.644E+00
RMM:   6    -0.691231951306E+02    0.28223E+00   -0.20858E-01  7422   0.155E+00    0.375E+00
RMM:   7    -0.690241233198E+02    0.99072E-01   -0.57020E-01  7409   0.261E+00    0.250E+00
RMM:   8    -0.689463125271E+02    0.77811E-01   -0.80552E-02  7449   0.104E+00    0.997E-01
RMM:   9    -0.689739035591E+02   -0.27591E-01   -0.51766E-02  7416   0.741E-01    0.197E+00
RMM:  10    -0.689377320705E+02    0.36171E-01   -0.18721E-02  7408   0.543E-01    0.103E+00
RMM:  11    -0.689261339470E+02    0.11598E-01   -0.12206E-02  7407   0.360E-01    0.243E-01
RMM:  12    -0.689251618432E+02    0.97210E-03   -0.15502E-03  7440   0.160E-01    0.113E-01
RMM:  13    -0.689247700524E+02    0.39179E-03   -0.25821E-04  7433   0.595E-02    0.953E-02
RMM:  14    -0.689240903114E+02    0.67974E-03   -0.27993E-04  7345   0.548E-02    0.302E-02
RMM:  15    -0.689238823081E+02    0.20800E-03   -0.18598E-04  7144   0.466E-02    0.114E-01
RMM:  16    -0.689236583642E+02    0.22394E-03   -0.20426E-05  5010   0.158E-02    0.475E-02
RMM:  17    -0.689234239401E+02    0.23442E-03   -0.72667E-05  6330   0.280E-02    0.304E-02
RMM:  18    -0.689234303684E+02   -0.64283E-05   -0.20026E-05  4942   0.174E-02
   5 F= -.68923430E+02 E0= -.68866987E+02  d E =0.355275E+01
 curvature:  24.75 expect dE= 0.305E+03 dE for cont linesearch  0.227E+03
 ZBRENT: bracketing found
 ZBRENT: interpolating
 opt :  10.5731  next Energy=   -74.044180 (dE=-0.157E+01)
 bond charge predicted
       N       E                     dE             d eps       ncg     rms          rms(c)
DAV:   1    -0.707070543823E+02   -0.17836E+01   -0.11744E+03  7416   0.926E+01    0.778E+00
RMM:   2    -0.106543840207E+03   -0.35837E+02   -0.42452E+01  7414   0.183E+01    0.312E+01
RMM:   3    -0.746268155591E+02    0.31917E+02   -0.75214E+00  7412   0.107E+01    0.525E+00
RMM:   4    -0.751056110441E+02   -0.47880E+00   -0.11313E+00  7470   0.391E+00    0.717E+00
RMM:   5    -0.742084926580E+02    0.89712E+00   -0.32663E-01  7501   0.197E+00    0.333E+00
RMM:   6    -0.741402871206E+02    0.68206E-01   -0.15897E-01  7422   0.152E+00    0.253E+00
RMM:   7    -0.740833035842E+02    0.56984E-01   -0.10749E-01  7421   0.127E+00    0.133E+00
RMM:   8    -0.740751971393E+02    0.81064E-02   -0.50078E-02  7417   0.847E-01    0.137E+00
RMM:   9    -0.740576897509E+02    0.17507E-01   -0.87709E-03  7434   0.331E-01    0.559E-01
RMM:  10    -0.740551474939E+02    0.25423E-02   -0.32680E-03  7418   0.221E-01    0.347E-01
RMM:  11    -0.740548096732E+02    0.33782E-03   -0.17189E-03  7411   0.170E-01    0.128E-01
RMM:  12    -0.740550860842E+02   -0.27641E-03   -0.51014E-04  7418   0.945E-02    0.875E-02
RMM:  13    -0.740555390494E+02   -0.45297E-03   -0.24907E-04  7387   0.672E-02    0.810E-02
RMM:  14    -0.740571252149E+02   -0.15862E-02   -0.27604E-04  7354   0.492E-02    0.271E-01
RMM:  15    -0.740569706464E+02    0.15457E-03   -0.32892E-05  5508   0.234E-02    0.217E-01
RMM:  16    -0.740564304262E+02    0.54022E-03   -0.34425E-05  5724   0.193E-02    0.831E-02
RMM:  17    -0.740618016923E+02   -0.53713E-02   -0.89644E-04  7356   0.690E-02    0.599E-01
RMM:  18    -0.740580095499E+02    0.37921E-02   -0.11297E-04  7215   0.421E-02    0.297E-01
RMM:  19    -0.740585999548E+02   -0.59040E-03   -0.26323E-05  5277   0.174E-02    0.352E-01
RMM:  20    -0.740575005470E+02    0.10994E-02   -0.30148E-05  5474   0.154E-02    0.220E-01
RMM:  21    -0.740569501971E+02    0.55035E-03   -0.66815E-05  6694   0.225E-02    0.952E-02
RMM:  22    -0.740569191229E+02    0.31074E-04   -0.14231E-05  4786   0.128E-02    0.793E-02
RMM:  23    -0.740568504297E+02    0.68693E-04   -0.10140E-05  4585   0.899E-03    0.433E-02
RMM:  24    -0.740568262407E+02    0.24189E-04   -0.50227E-06  4524   0.829E-03    0.245E-02
RMM:  25    -0.740568326886E+02   -0.64479E-05   -0.13327E-06  4309   0.577E-03
   6 F= -.74056833E+02 E0= -.73986913E+02  d E =-.158065E+01
 curvature:  -0.00 expect dE=-0.751E-04 dE for cont linesearch -0.204E-04
 trial: gam=-0.03383 g(F)=  0.367E-01 g(S)=  0.000E+00 ort = 0.430E-01 (trialstep = 0.291E+01)
 search vector abs. value=  0.340E-01
 bond charge predicted
       N       E                     dE             d eps       ncg     rms          rms(c)
DAV:   1    -0.741235190156E+02   -0.66693E-01   -0.15492E+01  7524   0.120E+01    0.569E-01
RMM:   2    -0.741703675031E+02   -0.46848E-01   -0.28508E-01  7434   0.214E+00    0.123E+00
RMM:   3    -0.741718312556E+02   -0.14638E-02   -0.32694E-02  9432   0.594E-01    0.126E+00
RMM:   4    -0.741532304840E+02    0.18601E-01   -0.74076E-03  7446   0.274E-01    0.590E-01
RMM:   5    -0.741504587351E+02    0.27717E-02   -0.19983E-03  7435   0.167E-01    0.342E-01
RMM:   6    -0.741501206259E+02    0.33811E-03   -0.15936E-03  7415   0.134E-01    0.307E-01
RMM:   7    -0.741492131662E+02    0.90746E-03   -0.25631E-03  7420   0.160E-01    0.155E-01
RMM:   8    -0.741490399344E+02    0.17323E-03   -0.48709E-04  7397   0.787E-02    0.117E-01
RMM:   9    -0.741488346823E+02    0.20525E-03   -0.87479E-05  7263   0.306E-02    0.297E-02
RMM:  10    -0.741488280117E+02    0.66706E-05   -0.26108E-05  4880   0.199E-02
   7 F= -.74148828E+02 E0= -.74079874E+02  d E =-.919953E-01
 ZBRENT: can't locate minimum, use default step
 trial-energy change:   -0.091995  1 .order   -0.091952   -0.102710   -0.081194
 step:  11.6585(harm= 13.9132)  dis= 0.07715  next Energy=   -74.301981 (dE=-0.245E+00)
 bond charge predicted
       N       E                     dE             d eps       ncg     rms          rms(c)
DAV:   1    -0.739941440652E+02    0.15469E+00   -0.13949E+02  7380   0.363E+01    0.186E+00
RMM:   2    -0.745872642425E+02   -0.59312E+00   -0.34193E+00  7431   0.820E+00    0.451E+00
RMM:   3    -0.745871848623E+02    0.79380E-04   -0.48001E-01  8738   0.206E+00    0.451E+00
RMM:   4    -0.743535684255E+02    0.23362E+00   -0.93647E-02  7430   0.121E+00    0.200E+00
RMM:   5    -0.743135402736E+02    0.40028E-01   -0.21884E-02  7440   0.566E-01    0.120E+00
RMM:   6    -0.743084697570E+02    0.50705E-02   -0.11281E-02  7414   0.351E-01    0.109E+00
RMM:   7    -0.742984251187E+02    0.10045E-01   -0.30490E-02  7411   0.581E-01    0.578E-01
RMM:   8    -0.742973573387E+02    0.10678E-02   -0.11300E-02  7418   0.382E-01    0.504E-01
RMM:   9    -0.742937200992E+02    0.36372E-02   -0.23588E-03  7430   0.177E-01    0.174E-01
RMM:  10    -0.742931774354E+02    0.54266E-03   -0.52605E-04  7409   0.864E-02    0.734E-02
RMM:  11    -0.742930834594E+02    0.93976E-04   -0.51876E-04  7405   0.741E-02    0.435E-02
RMM:  12    -0.742931015164E+02   -0.18057E-04   -0.86490E-05  7222   0.363E-02    0.310E-02
RMM:  13    -0.742931605207E+02   -0.59004E-04   -0.18160E-05  4649   0.157E-02    0.174E-02
RMM:  14    -0.742932273303E+02   -0.66810E-04   -0.94627E-06  4549   0.156E-02    0.119E-02
RMM:  15    -0.742932566912E+02   -0.29361E-04   -0.41451E-06  4464   0.927E-03    0.794E-03
RMM:  16    -0.742933061276E+02   -0.49436E-04   -0.50655E-06  4501   0.688E-03    0.256E-02
RMM:  17    -0.742933246408E+02   -0.18513E-04   -0.19016E-06  4456   0.624E-03    0.130E-02
RMM:  18    -0.742933591517E+02   -0.34511E-04   -0.48052E-06  4517   0.523E-03    0.194E-02
RMM:  19    -0.742934061568E+02   -0.47005E-04   -0.53655E-06  4553   0.581E-03    0.444E-02
RMM:  20    -0.742934022596E+02    0.38971E-05   -0.95178E-07  3951   0.487E-03
   8 F= -.74293402E+02 E0= -.74228355E+02  d E =-.236570E+00
 curvature:  -6.43 expect dE=-0.230E-01 dE for cont linesearch -0.400E-02
 ZBRENT: extrapolating
 opt :  13.3868  next Energy=   -74.297375 (dE=-0.241E+00)
 bond charge predicted
       N       E                     dE             d eps       ncg     rms          rms(c)
DAV:   1    -0.742889827242E+02    0.44234E-02   -0.54398E+00  7740   0.711E+00    0.348E-01
RMM:   2    -0.742992732742E+02   -0.10291E-01   -0.98597E-02  7433   0.120E+00    0.333E-01
RMM:   3    -0.743105795490E+02   -0.11306E-01   -0.10410E-02  8811   0.371E-01    0.914E-01
RMM:   4    -0.742998744124E+02    0.10705E-01   -0.21339E-03  7536   0.136E-01    0.409E-01
RMM:   5    -0.742981115361E+02    0.17629E-02   -0.75003E-04  7410   0.108E-01    0.173E-01
RMM:   6    -0.742979897941E+02    0.12174E-03   -0.46311E-04  7415   0.753E-02    0.167E-01
RMM:   7    -0.742978207317E+02    0.16906E-03   -0.87084E-04  7413   0.959E-02    0.114E-01
RMM:   8    -0.742976470096E+02    0.17372E-03   -0.26091E-04  7378   0.517E-02    0.677E-02
RMM:   9    -0.742975903097E+02    0.56700E-04   -0.39281E-05  5817   0.242E-02    0.354E-02
RMM:  10    -0.742975725971E+02    0.17713E-04   -0.15655E-05  4357   0.190E-02    0.879E-03
RMM:  11    -0.742975771761E+02   -0.45790E-05   -0.13293E-05  4411   0.129E-02
   9 F= -.74297577E+02 E0= -.74233342E+02  d E =-.240744E+00
 curvature:  -6.39 expect dE=-0.248E-01 dE for cont linesearch -0.732E-05
 trial: gam= 0.09353 g(F)=  0.389E-02 g(S)=  0.000E+00 ort = 0.197E-03 (trialstep = 0.501E+01)
 search vector abs. value=  0.422E-02
 bond charge predicted
       N       E                     dE             d eps       ncg     rms          rms(c)
DAV:   1    -0.743046241281E+02   -0.70515E-02   -0.57492E+00  7416   0.731E+00    0.330E-01
RMM:   2    -0.743187333895E+02   -0.14109E-01   -0.10418E-01  7431   0.128E+00    0.572E-01
RMM:   3    -0.743279259023E+02   -0.91925E-02   -0.12221E-02  9280   0.390E-01    0.959E-01
RMM:   4    -0.743153064916E+02    0.12619E-01   -0.20717E-03  7452   0.156E-01    0.273E-01
RMM:   5    -0.743147597879E+02    0.54670E-03   -0.47635E-04  7416   0.733E-02    0.191E-01
RMM:   6    -0.743148082957E+02   -0.48508E-04   -0.44768E-04  7412   0.734E-02    0.203E-01
RMM:   7    -0.743143154252E+02    0.49287E-03   -0.10135E-03  7415   0.963E-02    0.822E-02
RMM:   8    -0.743141987792E+02    0.11665E-03   -0.19976E-04  7379   0.514E-02    0.369E-02
RMM:   9    -0.743141846545E+02    0.14125E-04   -0.31365E-05  5339   0.227E-02    0.228E-02
RMM:  10    -0.743141786382E+02    0.60163E-05   -0.12887E-05  4346   0.192E-02
  10 F= -.74314179E+02 E0= -.74250331E+02  d E =-.166015E-01
 ZBRENT: can't locate minimum, use default step
 trial-energy change:   -0.016601  1 .order   -0.016674   -0.019564   -0.013784
 step:  20.0363(harm= 16.9534)  dis= 0.04132  next Energy=   -74.335897 (dE=-0.383E-01)
 bond charge predicted
       N       E                     dE             d eps       ncg     rms          rms(c)
DAV:   1    -0.742285809162E+02    0.85604E-01   -0.51693E+01  7380   0.220E+01    0.103E+00
RMM:   2    -0.743324472170E+02   -0.10387E+00   -0.10908E+00  7423   0.464E+00    0.639E-01
RMM:   3    -0.744263390085E+02   -0.93892E-01   -0.13195E-01  8059   0.112E+00    0.250E+00
RMM:   4    -0.743395190999E+02    0.86820E-01   -0.13899E-02  7616   0.519E-01    0.754E-01
RMM:   5    -0.743355258645E+02    0.39932E-02   -0.39517E-03  7420   0.213E-01    0.597E-01
RMM:   6    -0.743352732019E+02    0.25266E-03   -0.32324E-03  7412   0.206E-01    0.615E-01
RMM:   7    -0.743318268465E+02    0.34464E-02   -0.98399E-03  7409   0.295E-01    0.345E-01
RMM:   8    -0.743306689264E+02    0.11579E-02   -0.42097E-03  7410   0.233E-01    0.242E-01
RMM:   9    -0.743297487193E+02    0.92021E-03   -0.72498E-04  7454   0.993E-02    0.894E-02
RMM:  10    -0.743295997928E+02    0.14893E-03   -0.13912E-04  7309   0.432E-02    0.485E-02
RMM:  11    -0.743295674153E+02    0.32377E-04   -0.19987E-04  7389   0.422E-02    0.254E-02
RMM:  12    -0.743295962130E+02   -0.28798E-04   -0.48818E-05  6511   0.292E-02    0.136E-02
RMM:  13    -0.743296176981E+02   -0.21485E-04   -0.11312E-05  4503   0.144E-02    0.691E-03
RMM:  14    -0.743296431870E+02   -0.25489E-04   -0.41229E-06  4479   0.109E-02    0.699E-03
RMM:  15    -0.743296651609E+02   -0.21974E-04   -0.30562E-06  4497   0.582E-03    0.545E-03
RMM:  16    -0.743296755296E+02   -0.10369E-04   -0.11792E-06  4339   0.444E-03    0.423E-03
RMM:  17    -0.743296923900E+02   -0.16860E-04   -0.27745E-06  4311   0.433E-03    0.303E-03
RMM:  18    -0.743296994824E+02   -0.70924E-05   -0.21924E-06  4059   0.395E-03
  11 F= -.74329699E+02 E0= -.74266725E+02  d E =-.321223E-01
 curvature:  -8.55 expect dE=-0.909E-01 dE for cont linesearch -0.806E-03
 trial: gam= 2.95489 g(F)=  0.106E-01 g(S)=  0.000E+00 ort =-0.631E-03 (trialstep = 0.773E+00)
 search vector abs. value=  0.438E-01
 bond charge predicted
       N       E                     dE             d eps       ncg     rms          rms(c)
DAV:   1    -0.743338848998E+02   -0.41925E-02   -0.14156E+00  7704   0.354E+00    0.183E-01
RMM:   2    -0.743432854663E+02   -0.94006E-02   -0.24270E-02  7422   0.594E-01    0.750E-01
RMM:   3    -0.743379939475E+02    0.52915E-02   -0.32204E-03  8257   0.207E-01    0.339E-01
RMM:   4    -0.743365172020E+02    0.14767E-02   -0.83648E-04  7437   0.103E-01    0.166E-01
RMM:   5    -0.743361643537E+02    0.35285E-03   -0.23429E-04  7381   0.548E-02    0.947E-02
RMM:   6    -0.743360433238E+02    0.12103E-03   -0.10878E-04  7346   0.363E-02    0.538E-02
RMM:   7    -0.743360916814E+02   -0.48358E-04   -0.23680E-04  7387   0.500E-02    0.680E-02
RMM:   8    -0.743360096141E+02    0.82067E-04   -0.70738E-05  7167   0.267E-02    0.142E-02
RMM:   9    -0.743360053727E+02    0.42414E-05   -0.55222E-06  4232   0.117E-02
  12 F= -.74336005E+02 E0= -.74273089E+02  d E =-.630589E-02
 ZBRENT: can't locate minimum, use default step
 trial-energy change:   -0.006306  1 .order   -0.006398   -0.006778   -0.006018
 step:   3.0925(harm=  6.8950)  dis= 0.02810  next Energy=   -74.359925 (dE=-0.302E-01)
 bond charge predicted
       N       E                     dE             d eps       ncg     rms          rms(c)
DAV:   1    -0.743295787484E+02    0.64309E-02   -0.12736E+01  7380   0.106E+01    0.546E-01
RMM:   2    -0.743916705111E+02   -0.62092E-01   -0.22645E-01  7424   0.195E+00    0.186E+00
RMM:   3    -0.743707961534E+02    0.20874E-01   -0.34235E-02  9435   0.604E-01    0.111E+00
RMM:   4    -0.743558006905E+02    0.14995E-01   -0.74685E-03  7428   0.313E-01    0.549E-01
RMM:   5    -0.743515516543E+02    0.42490E-02   -0.21832E-03  7422   0.169E-01    0.275E-01
RMM:   6    -0.743506274322E+02    0.92422E-03   -0.99197E-04  7411   0.109E-01    0.180E-01
RMM:   7    -0.743508275926E+02   -0.20016E-03   -0.24395E-03  7424   0.156E-01    0.189E-01
RMM:   8    -0.743501987513E+02    0.62884E-03   -0.66341E-04  7451   0.848E-02    0.331E-02
RMM:   9    -0.743501700309E+02    0.28720E-04   -0.56127E-05  6699   0.304E-02    0.260E-02
RMM:  10    -0.743501563828E+02    0.13648E-04   -0.16991E-05  4320   0.169E-02    0.160E-02
RMM:  11    -0.743501516760E+02    0.47068E-05   -0.25550E-05  4720   0.180E-02
  13 F= -.74350152E+02 E0= -.74287356E+02  d E =-.204522E-01
 curvature: -10.57 expect dE=-0.665E-01 dE for cont linesearch -0.490E-02
 ZBRENT: increasing intervall
 opt :   7.7312  next Energy=   -74.355812 (dE=-0.261E-01)
 bond charge predicted
       N       E                     dE             d eps       ncg     rms          rms(c)
DAV:   1    -0.742605960366E+02    0.89560E-01   -0.50934E+01  7380   0.214E+01    0.110E+00
RMM:   2    -0.744061375238E+02   -0.14554E+00   -0.10326E+00  7424   0.450E+00    0.215E+00
RMM:   3    -0.745004854484E+02   -0.94348E-01   -0.17956E-01  9540   0.125E+00    0.290E+00
RMM:   4    -0.743854857465E+02    0.11500E+00   -0.31719E-02  7444   0.637E-01    0.121E+00
RMM:   5    -0.743629368643E+02    0.22549E-01   -0.89754E-03  7426   0.345E-01    0.544E-01
RMM:   6    -0.743599442368E+02    0.29926E-02   -0.34565E-03  7413   0.204E-01    0.406E-01
RMM:   7    -0.743592922492E+02    0.65199E-03   -0.11354E-02  7416   0.335E-01    0.340E-01
RMM:   8    -0.743577369816E+02    0.15553E-02   -0.36958E-03  7435   0.214E-01    0.151E-01
RMM:   9    -0.743573551963E+02    0.38179E-03   -0.37941E-04  7765   0.668E-02    0.630E-02
RMM:  10    -0.743572772280E+02    0.77968E-04   -0.81357E-05  7189   0.305E-02    0.410E-02
RMM:  11    -0.743572279750E+02    0.49253E-04   -0.17360E-04  7353   0.410E-02    0.139E-02
RMM:  12    -0.743572293619E+02   -0.13869E-05   -0.18906E-05  4518   0.213E-02
  14 F= -.74357229E+02 E0= -.74294534E+02  d E =-.275299E-01
 curvature: -12.22 expect dE=-0.110E+00 dE for cont linesearch -0.164E-02
 ZBRENT: bracketing found
 ZBRENT: interpolating
 opt :   6.1082  next Energy=   -74.359196 (dE=-0.295E-01)
 bond charge predicted
       N       E                     dE             d eps       ncg     rms          rms(c)
DAV:   1    -0.743490283125E+02    0.81997E-02   -0.62214E+00  7380   0.744E+00    0.377E-01
RMM:   2    -0.743782861094E+02   -0.29258E-01   -0.11206E-01  7420   0.133E+00    0.115E+00
RMM:   3    -0.743697273694E+02    0.85587E-02   -0.15149E-02  9154   0.387E-01    0.783E-01
RMM:   4    -0.743606212921E+02    0.91061E-02   -0.34853E-03  7429   0.216E-01    0.318E-01
RMM:   5    -0.743594899326E+02    0.11314E-02   -0.10124E-03  7427   0.111E-01    0.216E-01
RMM:   6    -0.743589548284E+02    0.53510E-03   -0.50390E-04  7403   0.787E-02    0.133E-01
RMM:   7    -0.743590862332E+02   -0.13140E-03   -0.11112E-03  7421   0.108E-01    0.145E-01
RMM:   8    -0.743587505036E+02    0.33573E-03   -0.34257E-04  7456   0.598E-02    0.580E-02
RMM:   9    -0.743587100820E+02    0.40422E-04   -0.28002E-05  5166   0.241E-02    0.278E-02
RMM:  10    -0.743586967846E+02    0.13297E-04   -0.14727E-05  4280   0.200E-02    0.112E-02
RMM:  11    -0.743586945718E+02    0.22128E-05   -0.16701E-05  4271   0.148E-02
  15 F= -.74358695E+02 E0= -.74295973E+02  d E =-.289951E-01
 curvature: -14.66 expect dE=-0.102E+00 dE for cont linesearch -0.982E-04
 trial: gam= 0.29105 g(F)=  0.694E-02 g(S)=  0.000E+00 ort = 0.541E-03 (trialstep = 0.184E+01)
 search vector abs. value=  0.110E-01
 bond charge predicted
       N       E                     dE             d eps       ncg     rms          rms(c)
DAV:   1    -0.743675263267E+02   -0.88295E-02   -0.20328E+00  7380   0.445E+00    0.211E-01
RMM:   2    -0.743717761047E+02   -0.42498E-02   -0.36863E-02  7423   0.696E-01    0.243E-01
RMM:   3    -0.743790597614E+02   -0.72837E-02   -0.33711E-03  8055   0.224E-01    0.722E-01
RMM:   4    -0.743714435807E+02    0.76162E-02   -0.11001E-03  7449   0.108E-01    0.191E-01
RMM:   5    -0.743710071000E+02    0.43648E-03   -0.29974E-04  7384   0.606E-02    0.998E-02
RMM:   6    -0.743708842012E+02    0.12290E-03   -0.11917E-04  7339   0.377E-02    0.598E-02
RMM:   7    -0.743708936269E+02   -0.94257E-05   -0.23360E-04  7387   0.497E-02    0.613E-02
RMM:   8    -0.743708332983E+02    0.60329E-04   -0.88818E-05  7250   0.306E-02    0.179E-02
RMM:   9    -0.743708276761E+02    0.56222E-05   -0.99059E-06  4273   0.128E-02
  16 F= -.74370828E+02 E0= -.74308130E+02  d E =-.121331E-01
 ZBRENT: can't locate minimum, use default step
 trial-energy change:   -0.012133  1 .order   -0.012244   -0.013064   -0.011423
 step:   7.3605(harm= 14.6500)  dis= 0.04215  next Energy=   -74.410699 (dE=-0.520E-01)
 bond charge predicted
       N       E                     dE             d eps       ncg     rms          rms(c)
DAV:   1    -0.743655965410E+02    0.52368E-02   -0.18291E+01  7380   0.134E+01    0.662E-01
RMM:   2    -0.744206701035E+02   -0.55074E-01   -0.36422E-01  7423   0.241E+00    0.121E+00
RMM:   3    -0.744526488024E+02   -0.31979E-01   -0.38063E-02  8489   0.654E-01    0.187E+00
RMM:   4    -0.744027258115E+02    0.49923E-01   -0.11299E-02  7416   0.389E-01    0.546E-01
RMM:   5    -0.743991992010E+02    0.35266E-02   -0.27260E-03  7436   0.179E-01    0.307E-01
RMM:   6    -0.743980126045E+02    0.11866E-02   -0.11122E-03  7412   0.114E-01    0.187E-01
RMM:   7    -0.743980110664E+02    0.15381E-05   -0.21543E-03  7416   0.155E-01    0.181E-01
RMM:   8    -0.743975937723E+02    0.41729E-03   -0.97541E-04  7433   0.104E-01    0.828E-02
RMM:   9    -0.743974801424E+02    0.11363E-03   -0.14358E-04  7362   0.407E-02    0.405E-02
RMM:  10    -0.743974398986E+02    0.40244E-04   -0.37403E-05  5917   0.194E-02    0.165E-02
RMM:  11    -0.743974344714E+02    0.54273E-05   -0.31290E-05  5029   0.198E-02
  17 F= -.74397434E+02 E0= -.74334825E+02  d E =-.387399E-01
 curvature:  -7.65 expect dE=-0.336E-01 dE for cont linesearch -0.807E-02
 ZBRENT: increasing intervall
 opt :  18.4013  next Energy=   -74.404008 (dE=-0.453E-01)
 bond charge predicted
       N       E                     dE             d eps       ncg     rms          rms(c)
DAV:   1    -0.742583294224E+02    0.13911E+00   -0.73127E+01  7380   0.268E+01    0.141E+00
RMM:   2    -0.746524448778E+02   -0.39412E+00   -0.17521E+00  7421   0.563E+00    0.389E+00
RMM:   3    -0.745715217027E+02    0.80923E-01   -0.20742E-01  8551   0.143E+00    0.312E+00
RMM:   4    -0.744232213951E+02    0.14830E+00   -0.50642E-02  7412   0.919E-01    0.101E+00
RMM:   5    -0.744111724967E+02    0.12049E-01   -0.10825E-02  7436   0.369E-01    0.618E-01
RMM:   6    -0.744065187105E+02    0.46538E-02   -0.44002E-03  7417   0.240E-01    0.404E-01
RMM:   7    -0.744060293975E+02    0.48931E-03   -0.92040E-03  7414   0.332E-01    0.367E-01
RMM:   8    -0.744047043516E+02    0.13250E-02   -0.42300E-03  7530   0.216E-01    0.211E-01
RMM:   9    -0.744040783012E+02    0.62605E-03   -0.77353E-04  7450   0.905E-02    0.101E-01
RMM:  10    -0.744038847923E+02    0.19351E-03   -0.15054E-04  7380   0.398E-02    0.409E-02
RMM:  11    -0.744038377774E+02    0.47015E-04   -0.18318E-04  7362   0.433E-02    0.159E-02
RMM:  12    -0.744038379378E+02   -0.16037E-06   -0.20731E-05  4493   0.217E-02
  18 F= -.74403838E+02 E0= -.74341740E+02  d E =-.451434E-01
 curvature:  -6.23 expect dE=-0.134E+00 dE for cont linesearch -0.338E-02
 ZBRENT: bracketing found
 ZBRENT: interpolating
 opt :  13.7890  next Energy=   -74.409466 (dE=-0.508E-01)
 bond charge predicted
       N       E                     dE             d eps       ncg     rms          rms(c)
DAV:   1    -0.743872296463E+02    0.16608E-01   -0.12740E+01  7380   0.112E+01    0.532E-01
RMM:   2    -0.744256914850E+02   -0.38462E-01   -0.24067E-01  7426   0.186E+00    0.102E+00
RMM:   3    -0.744356750457E+02   -0.99836E-02   -0.23881E-02  8321   0.606E-01    0.129E+00
RMM:   4    -0.744117462243E+02    0.23929E-01   -0.62070E-03  7420   0.288E-01    0.391E-01
RMM:   5    -0.744100667785E+02    0.16794E-02   -0.14055E-03  7419   0.129E-01    0.272E-01
RMM:   6    -0.744095091671E+02    0.55761E-03   -0.65928E-04  7411   0.965E-02    0.191E-01
RMM:   7    -0.744093206585E+02    0.18851E-03   -0.14578E-03  7416   0.124E-01    0.150E-01
RMM:   8    -0.744089773971E+02    0.34326E-03   -0.55625E-04  7425   0.771E-02    0.607E-02
RMM:   9    -0.744089439847E+02    0.33412E-04   -0.72711E-05  7004   0.315E-02    0.427E-02
RMM:  10    -0.744089093627E+02    0.34622E-04   -0.20513E-05  4461   0.175E-02    0.149E-02
RMM:  11    -0.744089059748E+02    0.33878E-05   -0.18687E-05  4310   0.158E-02
  19 F= -.74408906E+02 E0= -.74346517E+02  d E =-.502114E-01
 curvature: -10.36 expect dE=-0.108E+00 dE for cont linesearch -0.164E-04
 trial: gam= 1.48427 g(F)=  0.105E-01 g(S)=  0.000E+00 ort = 0.132E-03 (trialstep = 0.132E+01)
 search vector abs. value=  0.350E-01
 bond charge predicted
       N       E                     dE             d eps       ncg     rms          rms(c)
DAV:   1    -0.744171807965E+02   -0.82714E-02   -0.32891E+00  7380   0.598E+00    0.282E-01
RMM:   2    -0.744335822386E+02   -0.16401E-01   -0.64228E-02  7413   0.880E-01    0.832E-01
RMM:   3    -0.744258814346E+02    0.77008E-02   -0.45196E-03  7589   0.280E-01    0.415E-01
RMM:   4    -0.744240337193E+02    0.18477E-02   -0.12655E-03  7442   0.126E-01    0.261E-01
RMM:   5    -0.744230689597E+02    0.96476E-03   -0.40689E-04  7422   0.719E-02    0.112E-01
RMM:   6    -0.744229216150E+02    0.14734E-03   -0.22088E-04  7373   0.527E-02    0.785E-02
RMM:   7    -0.744228676542E+02    0.53961E-04   -0.25287E-04  7393   0.515E-02    0.463E-02
RMM:   8    -0.744228315260E+02    0.36128E-04   -0.42283E-05  6132   0.220E-02    0.172E-02
RMM:   9    -0.744228283251E+02    0.32009E-05   -0.72315E-06  4249   0.143E-02
  20 F= -.74422828E+02 E0= -.74360423E+02  d E =-.139224E-01
 ZBRENT: can't locate minimum, use default step
 trial-energy change:   -0.013922  1 .order   -0.014047   -0.014128   -0.013965
 step:   5.2976(harm=114.2828)  dis= 0.06013  next Energy=   -75.018479 (dE=-0.610E+00)
 bond charge predicted
       N       E                     dE             d eps       ncg     rms          rms(c)
DAV:   1    -0.744082588349E+02    0.14573E-01   -0.29592E+01  7380   0.179E+01    0.884E-01
RMM:   2    -0.746198246227E+02   -0.21157E+00   -0.63326E-01  7408   0.292E+00    0.311E+00
RMM:   3    -0.744918015891E+02    0.12802E+00   -0.50632E-02  7686   0.839E-01    0.127E+00
RMM:   4    -0.744701310174E+02    0.21671E-01   -0.13402E-02  7434   0.413E-01    0.700E-01
RMM:   5    -0.744645063732E+02    0.56246E-02   -0.39006E-03  7420   0.227E-01    0.440E-01
RMM:   6    -0.744621285029E+02    0.23779E-02   -0.19860E-03  7414   0.168E-01    0.233E-01
RMM:   7    -0.744619207522E+02    0.20775E-03   -0.24434E-03  7419   0.162E-01    0.185E-01
RMM:   8    -0.744614161697E+02    0.50458E-03   -0.68479E-04  7413   0.867E-02    0.855E-02
RMM:   9    -0.744613268326E+02    0.89337E-04   -0.88201E-05  7298   0.365E-02    0.434E-02
RMM:  10    -0.744613041736E+02    0.22659E-04   -0.21989E-05  4691   0.200E-02    0.202E-02
RMM:  11    -0.744613244407E+02   -0.20267E-04   -0.48697E-05  6420   0.235E-02    0.880E-03
RMM:  12    -0.744613391587E+02   -0.14718E-04   -0.48314E-06  4472   0.115E-02    0.687E-03
RMM:  13    -0.744613453963E+02   -0.62376E-05   -0.16633E-06  4340   0.653E-03
  21 F= -.74461345E+02 E0= -.74399182E+02  d E =-.524394E-01
 curvature: -12.96 expect dE=-0.130E+00 dE for cont linesearch -0.288E-01
 ZBRENT: increasing intervall
 opt :  13.2440  next Energy=   -74.517660 (dE=-0.109E+00)
 bond charge predicted
       N       E                     dE             d eps       ncg     rms          rms(c)
DAV:   1    -0.742901498292E+02    0.17119E+00   -0.11790E+02  7380   0.356E+01    0.189E+00
RMM:   2    -0.756017609665E+02   -0.13116E+01   -0.30677E+00  7401   0.667E+00    0.799E+00
RMM:   3    -0.746822977379E+02    0.91946E+00   -0.28195E-01  7657   0.183E+00    0.271E+00
RMM:   4    -0.745529649172E+02    0.12933E+00   -0.68148E-02  7420   0.978E-01    0.118E+00
RMM:   5    -0.745424125201E+02    0.10552E-01   -0.16939E-02  7413   0.499E-01    0.103E+00
RMM:   6    -0.745285230618E+02    0.13889E-01   -0.78019E-03  7411   0.354E-01    0.490E-01
RMM:   7    -0.745280654793E+02    0.45758E-03   -0.95225E-03  7411   0.338E-01    0.411E-01
RMM:   8    -0.745259660711E+02    0.20994E-02   -0.52342E-03  7416   0.249E-01    0.246E-01
RMM:   9    -0.745251809536E+02    0.78512E-03   -0.80544E-04  7424   0.106E-01    0.122E-01
RMM:  10    -0.745249535182E+02    0.22744E-03   -0.13659E-04  7384   0.430E-02    0.533E-02
RMM:  11    -0.745249437229E+02    0.97952E-05   -0.18504E-04  7383   0.485E-02    0.226E-02
RMM:  12    -0.745249754451E+02   -0.31722E-04   -0.29896E-05  5224   0.226E-02    0.164E-02
RMM:  13    -0.745250139268E+02   -0.38482E-04   -0.11164E-05  4518   0.188E-02    0.464E-03
RMM:  14    -0.745250637086E+02   -0.49782E-04   -0.62667E-06  4534   0.891E-03    0.847E-03
RMM:  15    -0.745250894553E+02   -0.25747E-04   -0.27082E-06  4481   0.745E-03    0.751E-03
RMM:  16    -0.745251308484E+02   -0.41393E-04   -0.55473E-06  4561   0.629E-03    0.536E-03
RMM:  17    -0.745251442974E+02   -0.13449E-04   -0.21170E-06  4206   0.471E-03    0.305E-03
RMM:  18    -0.745251578702E+02   -0.13573E-04   -0.32278E-06  4360   0.482E-03    0.128E-03
RMM:  19    -0.745251624833E+02   -0.46130E-05   -0.25556E-06  4110   0.434E-03
  22 F= -.74525162E+02 E0= -.74465194E+02  d E =-.116257E+00
 curvature: -25.38 expect dE=-0.589E+00 dE for cont linesearch -0.310E-01
 ZBRENT: increasing intervall
 opt :  29.1367  next Energy=   -74.593053 (dE=-0.184E+00)
 bond charge predicted
       N       E                     dE             d eps       ncg     rms          rms(c)
DAV:   1    -0.733605344963E+02    0.11646E+01   -0.45898E+02  7380   0.690E+01    0.391E+00
RMM:   2    -0.793921965529E+02   -0.60317E+01   -0.16357E+01  7385   0.148E+01    0.151E+01
RMM:   3    -0.754009370188E+02    0.39913E+01   -0.15129E+00  7598   0.400E+00    0.626E+00
RMM:   4    -0.746095870058E+02    0.79135E+00   -0.33803E-01  7399   0.229E+00    0.183E+00
RMM:   5    -0.745871381454E+02    0.22449E-01   -0.71495E-02  7399   0.105E+00    0.200E+00
RMM:   6    -0.745357312662E+02    0.51407E-01   -0.27541E-02  7402   0.660E-01    0.103E+00
RMM:   7    -0.745356747059E+02    0.56560E-04   -0.42905E-02  7401   0.764E-01    0.967E-01
RMM:   8    -0.745264030401E+02    0.92717E-02   -0.38362E-02  7409   0.695E-01    0.627E-01
RMM:   9    -0.745209326557E+02    0.54704E-02   -0.55736E-03  7402   0.288E-01    0.303E-01
RMM:  10    -0.745192121825E+02    0.17205E-02   -0.89235E-04  7399   0.107E-01    0.124E-01
RMM:  11    -0.745188467146E+02    0.36547E-03   -0.87567E-04  7389   0.115E-01    0.587E-02
RMM:  12    -0.745188188476E+02    0.27867E-04   -0.23974E-04  7389   0.582E-02    0.319E-02
RMM:  13    -0.745188511512E+02   -0.32304E-04   -0.36836E-05  5658   0.218E-02    0.164E-02
RMM:  14    -0.745189048738E+02   -0.53723E-04   -0.13225E-05  4547   0.179E-02    0.144E-02
RMM:  15    -0.745189901142E+02   -0.85240E-04   -0.88517E-06  4590   0.129E-02    0.142E-02
RMM:  16    -0.745190273511E+02   -0.37237E-04   -0.35478E-06  4491   0.777E-03    0.943E-03
RMM:  17    -0.745190965317E+02   -0.69181E-04   -0.56674E-06  4598   0.740E-03    0.310E-03
RMM:  18    -0.745191619250E+02   -0.65393E-04   -0.82602E-06  4675   0.743E-03    0.286E-03
RMM:  19    -0.745191861571E+02   -0.24232E-04   -0.41613E-06  4384   0.616E-03    0.340E-03
RMM:  20    -0.745191987826E+02   -0.12625E-04   -0.49744E-06  4482   0.593E-03    0.182E-03
RMM:  21    -0.745191996925E+02   -0.90992E-06   -0.17417E-06  3789   0.459E-03
  23 F= -.74519200E+02 E0= -.74465555E+02  d E =-.110294E+00
 curvature: -55.52 expect dE=-0.489E+01 dE for cont linesearch -0.424E+00
 ZBRENT: bracketing found
 ZBRENT: interpolating
 opt :  17.7872  next Energy=   -74.540027 (dE=-0.131E+00)
 bond charge predicted
       N       E                     dE             d eps       ncg     rms          rms(c)
DAV:   1    -0.740058225379E+02    0.51338E+00   -0.23419E+02  7380   0.472E+01    0.253E+00
RMM:   2    -0.759372782409E+02   -0.19315E+01   -0.59506E+00  7422   0.896E+00    0.862E+00
RMM:   3    -0.746728669550E+02    0.12644E+01   -0.57655E-01  8322   0.271E+00    0.263E+00
RMM:   4    -0.746199540380E+02    0.52913E-01   -0.10564E-01  7406   0.128E+00    0.191E+00
RMM:   5    -0.745681974235E+02    0.51757E-01   -0.26785E-02  7416   0.665E-01    0.102E+00
RMM:   6    -0.745619013482E+02    0.62961E-02   -0.18787E-02  7399   0.533E-01    0.813E-01
RMM:   7    -0.745527701093E+02    0.91312E-02   -0.18956E-02  7418   0.467E-01    0.259E-01
RMM:   8    -0.745529993539E+02   -0.22924E-03   -0.37544E-03  7554   0.214E-01    0.258E-01
RMM:   9    -0.745520781472E+02    0.92121E-03   -0.90111E-04  7424   0.109E-01    0.111E-01
RMM:  10    -0.745518918286E+02    0.18632E-03   -0.20372E-04  7396   0.546E-02    0.540E-02
RMM:  11    -0.745518826818E+02    0.91468E-05   -0.15802E-04  7352   0.417E-02    0.235E-02
RMM:  12    -0.745519003788E+02   -0.17697E-04   -0.34171E-05  5548   0.232E-02    0.161E-02
RMM:  13    -0.745519174520E+02   -0.17073E-04   -0.11278E-05  4518   0.176E-02    0.723E-03
RMM:  14    -0.745519270257E+02   -0.95737E-05   -0.36591E-06  4429   0.951E-03
  24 F= -.74551927E+02 E0= -.74493935E+02  d E =-.143021E+00
 curvature:  -1.95 expect dE=-0.715E-01 dE for cont linesearch -0.144E-02
 ZBRENT: bisectioning
 opt :  23.4619  next Energy=   -74.575629 (dE=-0.167E+00)
 bond charge predicted
       N       E                     dE             d eps       ncg     rms          rms(c)
DAV:   1    -0.744490838881E+02    0.10283E+00   -0.60155E+01  7380   0.250E+01    0.136E+00
RMM:   2    -0.751453761708E+02   -0.69629E+00   -0.15397E+00  7400   0.468E+00    0.589E+00
RMM:   3    -0.746426456237E+02    0.50273E+00   -0.14040E-01  7609   0.131E+00    0.187E+00
RMM:   4    -0.745819347903E+02    0.60711E-01   -0.40096E-02  7408   0.788E-01    0.918E-01
RMM:   5    -0.745719643621E+02    0.99704E-02   -0.91923E-03  7407   0.377E-01    0.624E-01
RMM:   6    -0.745665648384E+02    0.53995E-02   -0.39538E-03  7396   0.258E-01    0.306E-01
RMM:   7    -0.745668669506E+02   -0.30211E-03   -0.53263E-03  7405   0.264E-01    0.304E-01
RMM:   8    -0.745654080545E+02    0.14589E-02   -0.21513E-03  7408   0.166E-01    0.133E-01
RMM:   9    -0.745651735025E+02    0.23455E-03   -0.35060E-04  7407   0.713E-02    0.717E-02
RMM:  10    -0.745650781779E+02    0.95325E-04   -0.52381E-05  6938   0.267E-02    0.274E-02
RMM:  11    -0.745650788802E+02   -0.70239E-06   -0.59866E-05  6867   0.274E-02
  25 F= -.74565079E+02 E0= -.74509493E+02  d E =-.156173E+00
 curvature: -32.08 expect dE=-0.180E+01 dE for cont linesearch -0.405E-02
 ZBRENT: interpolating
 opt :  21.8025  next Energy=   -74.566823 (dE=-0.158E+00)
 bond charge predicted
       N       E                     dE             d eps       ncg     rms          rms(c)
DAV:   1    -0.745559134809E+02    0.91647E-02   -0.51352E+00  7416   0.718E+00    0.372E-01
RMM:   2    -0.746062752023E+02   -0.50362E-01   -0.11255E-01  7407   0.113E+00    0.153E+00
RMM:   3    -0.745685745956E+02    0.37701E-01   -0.96792E-03  7423   0.406E-01    0.410E-01
RMM:   4    -0.745672821278E+02    0.12925E-02   -0.29786E-03  7413   0.214E-01    0.335E-01
RMM:   5    -0.745655839007E+02    0.16982E-02   -0.73484E-04  7408   0.108E-01    0.141E-01
RMM:   6    -0.745653457441E+02    0.23816E-03   -0.38274E-04  7380   0.807E-02    0.822E-02
RMM:   7    -0.745652898242E+02    0.55920E-04   -0.33002E-04  7406   0.634E-02    0.563E-02
RMM:   8    -0.745652358650E+02    0.53959E-04   -0.77893E-05  7249   0.309E-02    0.244E-02
RMM:   9    -0.745652272121E+02    0.86530E-05   -0.11696E-05  4403   0.143E-02
  26 F= -.74565227E+02 E0= -.74508969E+02  d E =-.156321E+00
 curvature: -13.82 expect dE=-0.702E+00 dE for cont linesearch -0.670E-03
 trial: gam= 4.69871 g(F)=  0.508E-01 g(S)=  0.000E+00 ort = 0.130E-02 (trialstep = 0.227E+00)
 search vector abs. value=  0.836E+00
 bond charge predicted
       N       E                     dE             d eps       ncg     rms          rms(c)
DAV:   1    -0.745733813293E+02   -0.81455E-02   -0.22868E+00  7416   0.484E+00    0.256E-01
RMM:   2    -0.745878068775E+02   -0.14426E-01   -0.51043E-02  7402   0.763E-01    0.765E-01
RMM:   3    -0.745807543224E+02    0.70526E-02   -0.39617E-03  7567   0.240E-01    0.405E-01
RMM:   4    -0.745782093566E+02    0.25450E-02   -0.13371E-03  7406   0.140E-01    0.183E-01
RMM:   5    -0.745777969193E+02    0.41244E-03   -0.29489E-04  7404   0.676E-02    0.109E-01
RMM:   6    -0.745776220740E+02    0.17485E-03   -0.14980E-04  7348   0.506E-02    0.514E-02
RMM:   7    -0.745776129643E+02    0.91097E-05   -0.14677E-04  7358   0.431E-02    0.398E-02
RMM:   8    -0.745775850023E+02    0.27962E-04   -0.33786E-05  5543   0.215E-02    0.154E-02
RMM:   9    -0.745775820672E+02    0.29351E-05   -0.75758E-06  4201   0.152E-02
  27 F= -.74577582E+02 E0= -.74521721E+02  d E =-.123549E-01
 ZBRENT: can't locate minimum, use default step
 trial-energy change:   -0.012355  1 .order   -0.011936   -0.012911   -0.010961
 step:   0.9080(harm=  1.5030)  dis= 0.05437  next Energy=   -74.607968 (dE=-0.427E-01)
 bond charge predicted
       N       E                     dE             d eps       ncg     rms          rms(c)
DAV:   1    -0.745621969906E+02    0.15388E-01   -0.20576E+01  7380   0.145E+01    0.782E-01
RMM:   2    -0.746843162679E+02   -0.12212E+00   -0.48484E-01  7399   0.246E+00    0.218E+00
RMM:   3    -0.746371372047E+02    0.47179E-01   -0.38282E-02  7624   0.707E-01    0.133E+00
RMM:   4    -0.746062666501E+02    0.30871E-01   -0.13463E-02  7409   0.447E-01    0.503E-01
RMM:   5    -0.746036993319E+02    0.25673E-02   -0.27545E-03  7403   0.203E-01    0.357E-01
RMM:   6    -0.746018919714E+02    0.18074E-02   -0.12710E-03  7399   0.146E-01    0.160E-01
RMM:   7    -0.746019508243E+02   -0.58853E-04   -0.14436E-03  7400   0.139E-01    0.152E-01
RMM:   8    -0.746015685616E+02    0.38226E-03   -0.50897E-04  7395   0.823E-02    0.633E-02
RMM:   9    -0.746015151186E+02    0.53443E-04   -0.85181E-05  7302   0.356E-02    0.323E-02
RMM:  10    -0.746014963676E+02    0.18751E-04   -0.11763E-05  4391   0.139E-02    0.123E-02
RMM:  11    -0.746014985646E+02   -0.21970E-05   -0.92467E-06  4403   0.136E-02
  28 F= -.74601499E+02 E0= -.74546649E+02  d E =-.362714E-01
 curvature:  -8.65 expect dE=-0.401E+00 dE for cont linesearch -0.420E-02
 ZBRENT: increasing intervall
 opt :   2.2700  next Energy=   -74.590659 (dE=-0.254E-01)
 bond charge predicted
       N       E                     dE             d eps       ncg     rms          rms(c)
DAV:   1    -0.743849611744E+02    0.21654E+00   -0.82224E+01  7380   0.287E+01    0.156E+00
RMM:   2    -0.748199552513E+02   -0.43499E+00   -0.21626E+00  7399   0.544E+00    0.385E+00
RMM:   3    -0.747371777659E+02    0.82777E-01   -0.17364E-01  7769   0.144E+00    0.292E+00
RMM:   4    -0.745718654599E+02    0.16531E+00   -0.60919E-02  7404   0.963E-01    0.859E-01
RMM:   5    -0.745666615018E+02    0.52040E-02   -0.11100E-02  7408   0.398E-01    0.761E-01
RMM:   6    -0.745594415417E+02    0.72200E-02   -0.48356E-03  7400   0.278E-01    0.389E-01
RMM:   7    -0.745592302977E+02    0.21124E-03   -0.61341E-03  7398   0.293E-01    0.337E-01
RMM:   8    -0.745576416441E+02    0.15887E-02   -0.31656E-03  7401   0.210E-01    0.186E-01
RMM:   9    -0.745571678266E+02    0.47382E-03   -0.63090E-04  7397   0.981E-02    0.894E-02
RMM:  10    -0.745570158749E+02    0.15195E-03   -0.75656E-05  7280   0.337E-02    0.285E-02
RMM:  11    -0.745570269767E+02   -0.11102E-04   -0.53019E-05  6930   0.288E-02    0.217E-02
RMM:  12    -0.745570334517E+02   -0.64749E-05   -0.20498E-05  4607   0.191E-02
  29 F= -.74557033E+02 E0= -.74503589E+02  d E =0.819376E-02
 curvature:  22.29 expect dE= 0.156E+01 dE for cont linesearch  0.303E+00
 ZBRENT: bracketing found
 ZBRENT: interpolating
 opt :   1.1247  next Energy=   -74.603683 (dE=-0.385E-01)
 bond charge predicted
       N       E                     dE             d eps       ncg     rms          rms(c)
DAV:   1    -0.744851480892E+02    0.71879E-01   -0.57617E+01  7380   0.235E+01    0.130E+00
RMM:   2    -0.747337457536E+02   -0.24860E+00   -0.14023E+00  7404   0.425E+00    0.270E+00
RMM:   3    -0.747208350734E+02    0.12911E-01   -0.11558E-01  7744   0.130E+00    0.259E+00
RMM:   4    -0.746220730553E+02    0.98762E-01   -0.40449E-02  7410   0.768E-01    0.942E-01
RMM:   5    -0.746102356025E+02    0.11837E-01   -0.78999E-03  7409   0.347E-01    0.569E-01
RMM:   6    -0.746065729165E+02    0.36627E-02   -0.34872E-03  7400   0.234E-01    0.346E-01
RMM:   7    -0.746057075724E+02    0.86534E-03   -0.42169E-03  7402   0.238E-01    0.214E-01
RMM:   8    -0.746049403139E+02    0.76726E-03   -0.12013E-03  7409   0.127E-01    0.858E-02
RMM:   9    -0.746049270978E+02    0.13216E-04   -0.21424E-04  7406   0.541E-02    0.786E-02
RMM:  10    -0.746048197889E+02    0.10731E-03   -0.51965E-05  6789   0.286E-02    0.233E-02
RMM:  11    -0.746048148964E+02    0.48925E-05   -0.21254E-05  4780   0.180E-02
  30 F= -.74604815E+02 E0= -.74550250E+02  d E =-.395877E-01
 curvature:  -0.16 expect dE=-0.744E-02 dE for cont linesearch -0.155E-04
 trial: gam=-0.00543 g(F)=  0.463E-01 g(S)=  0.000E+00 ort = 0.898E-02 (trialstep = 0.407E+00)
 search vector abs. value=  0.462E-01
 bond charge predicted
       N       E                     dE             d eps       ncg     rms          rms(c)
DAV:   1    -0.746222007983E+02   -0.17381E-01   -0.43636E-01  7704   0.184E+00    0.842E-02
RMM:   2    -0.746288469260E+02   -0.66461E-02   -0.82366E-03  7411   0.324E-01    0.579E-01
RMM:   3    -0.746230144604E+02    0.58325E-02   -0.10536E-03  7506   0.126E-01    0.941E-02
RMM:   4    -0.746229447783E+02    0.69682E-04   -0.21706E-04  7480   0.539E-02    0.744E-02
RMM:   5    -0.746228624667E+02    0.82312E-04   -0.52399E-05  6808   0.258E-02    0.439E-02
RMM:   6    -0.746228507804E+02    0.11686E-04   -0.50125E-05  6730   0.258E-02    0.389E-02
RMM:   7    -0.746228356176E+02    0.15163E-04   -0.56121E-05  6997   0.263E-02    0.225E-02
RMM:   8    -0.746228289189E+02    0.66988E-05   -0.14553E-05  4381   0.150E-02
  31 F= -.74622829E+02 E0= -.74568131E+02  d E =-.180140E-01
 ZBRENT: can't locate minimum, use default step
 trial-energy change:   -0.018014  1 .order   -0.018043   -0.018798   -0.017289
 step:   1.6261(harm=  5.0623)  dis= 0.01554  next Energy=   -74.721855 (dE=-0.117E+00)
 bond charge predicted
       N       E                     dE             d eps       ncg     rms          rms(c)
DAV:   1    -0.746615763955E+02   -0.38741E-01   -0.39217E+00  7380   0.551E+00    0.249E-01
RMM:   2    -0.747054306699E+02   -0.43854E-01   -0.73419E-02  7416   0.102E+00    0.146E+00
RMM:   3    -0.746688956985E+02    0.36535E-01   -0.90881E-03  7928   0.366E-01    0.260E-01
RMM:   4    -0.746686935957E+02    0.20210E-03   -0.18044E-03  7555   0.151E-01    0.239E-01
RMM:   5    -0.746678413493E+02    0.85225E-03   -0.51552E-04  7408   0.803E-02    0.134E-01
RMM:   6    -0.746677075797E+02    0.13377E-03   -0.41386E-04  7404   0.680E-02    0.112E-01
RMM:   7    -0.746676173666E+02    0.90213E-04   -0.51851E-04  7410   0.748E-02    0.787E-02
RMM:   8    -0.746675192005E+02    0.98166E-04   -0.16521E-04  7418   0.438E-02    0.257E-02
RMM:   9    -0.746675099733E+02    0.92272E-05   -0.15304E-05  4483   0.160E-02
  32 F= -.74667510E+02 E0= -.74612386E+02  d E =-.626951E-01
 curvature:  -1.15 expect dE=-0.260E-01 dE for cont linesearch -0.242E-01
 ZBRENT: increasing intervall
 opt :   4.0653  next Energy=   -74.715871 (dE=-0.111E+00)
 bond charge predicted
       N       E                     dE             d eps       ncg     rms          rms(c)
DAV:   1    -0.746892316444E+02   -0.21712E-01   -0.15648E+01  7380   0.110E+01    0.507E-01
RMM:   2    -0.747978587347E+02   -0.10863E+00   -0.30990E-01  7421   0.233E+00    0.217E+00
RMM:   3    -0.747217465831E+02    0.76112E-01   -0.44247E-02  9592   0.677E-01    0.531E-01
RMM:   4    -0.747209128427E+02    0.83374E-03   -0.55142E-03  7422   0.275E-01    0.483E-01
RMM:   5    -0.747176455852E+02    0.32673E-02   -0.20391E-03  7415   0.170E-01    0.291E-01
RMM:   6    -0.747168614802E+02    0.78411E-03   -0.18687E-03  7409   0.141E-01    0.222E-01
RMM:   7    -0.747166282152E+02    0.23327E-03   -0.25980E-03  7442   0.166E-01    0.170E-01
RMM:   8    -0.747161607294E+02    0.46749E-03   -0.73909E-04  7456   0.960E-02    0.479E-02
RMM:   9    -0.747161272191E+02    0.33510E-04   -0.86581E-05  7312   0.346E-02    0.375E-02
RMM:  10    -0.747160944146E+02    0.32805E-04   -0.50779E-05  6644   0.215E-02    0.150E-02
RMM:  11    -0.747161016750E+02   -0.72604E-05   -0.28442E-05  5049   0.197E-02
  33 F= -.74716102E+02 E0= -.74660059E+02  d E =-.111287E+00
 curvature:  -2.30 expect dE=-0.212E-01 dE for cont linesearch -0.423E-02
 ZBRENT: extrapolating
 opt :   5.0904  next Energy=   -74.720830 (dE=-0.116E+00)
 bond charge predicted
       N       E                     dE             d eps       ncg     rms          rms(c)
DAV:   1    -0.747174912172E+02   -0.13968E-02   -0.27649E+00  7884   0.464E+00    0.202E-01
RMM:   2    -0.747354421760E+02   -0.17951E-01   -0.49711E-02  7422   0.838E-01    0.901E-01
RMM:   3    -0.747224979004E+02    0.12944E-01   -0.55105E-03  8476   0.286E-01    0.201E-01
RMM:   4    -0.747225030504E+02   -0.51499E-05   -0.10185E-03  7602   0.111E-01    0.200E-01
RMM:   5    -0.747219615009E+02    0.54155E-03   -0.35515E-04  7410   0.663E-02    0.121E-01
RMM:   6    -0.747218497776E+02    0.11172E-03   -0.29711E-04  7401   0.565E-02    0.990E-02
RMM:   7    -0.747217814094E+02    0.68368E-04   -0.40147E-04  7419   0.653E-02    0.704E-02
RMM:   8    -0.747217047697E+02    0.76640E-04   -0.12784E-04  7401   0.378E-02    0.191E-02
RMM:   9    -0.747217006240E+02    0.41456E-05   -0.11432E-05  4408   0.145E-02
  34 F= -.74721701E+02 E0= -.74665245E+02  d E =-.116886E+00
 curvature:  -2.57 expect dE=-0.275E-01 dE for cont linesearch -0.211E-03
 trial: gam= 0.18772 g(F)=  0.107E-01 g(S)=  0.000E+00 ort = 0.195E-02 (trialstep = 0.134E+01)
 search vector abs. value=  0.131E-01
 bond charge predicted
       N       E                     dE             d eps       ncg     rms          rms(c)
DAV:   1    -0.747338230968E+02   -0.12118E-01   -0.13384E+00  7416   0.320E+00    0.124E-01
RMM:   2    -0.747362182404E+02   -0.23951E-02   -0.20137E-02  7417   0.572E-01    0.192E-01
RMM:   3    -0.747372856427E+02   -0.10674E-02   -0.22475E-03  9519   0.167E-01    0.294E-01
RMM:   4    -0.747360434498E+02    0.12422E-02   -0.35280E-04  7490   0.621E-02    0.142E-01
RMM:   5    -0.747357165415E+02    0.32691E-03   -0.11941E-04  7286   0.354E-02    0.638E-02
RMM:   6    -0.747356928883E+02    0.23653E-04   -0.19088E-04  7384   0.442E-02    0.597E-02
RMM:   7    -0.747356658616E+02    0.27027E-04   -0.28095E-04  7504   0.503E-02    0.448E-02
RMM:   8    -0.747356343151E+02    0.31547E-04   -0.36110E-05  5726   0.250E-02    0.187E-02
RMM:   9    -0.747356252619E+02    0.90532E-05   -0.90128E-06  4246   0.145E-02
  35 F= -.74735625E+02 E0= -.74679007E+02  d E =-.139246E-01
 ZBRENT: can't locate minimum, use default step
 trial-energy change:   -0.013925  1 .order   -0.013967   -0.014897   -0.013037
 step:   5.3732(harm= 10.7574)  dis= 0.03843  next Energy=   -74.781349 (dE=-0.596E-01)
 bond charge predicted
       N       E                     dE             d eps       ncg     rms          rms(c)
DAV:   1    -0.747474817416E+02   -0.11847E-01   -0.12048E+01  7380   0.963E+00    0.393E-01
RMM:   2    -0.747742257139E+02   -0.26744E-01   -0.20667E-01  7417   0.206E+00    0.728E-01
RMM:   3    -0.747809332357E+02   -0.67075E-02   -0.28528E-02  9317   0.508E-01    0.843E-01
RMM:   4    -0.747701437035E+02    0.10790E-01   -0.38821E-03  7451   0.238E-01    0.437E-01
RMM:   5    -0.747672024897E+02    0.29412E-02   -0.98956E-04  7415   0.111E-01    0.212E-01
RMM:   6    -0.747666682746E+02    0.53422E-03   -0.20980E-03  7401   0.143E-01    0.170E-01
RMM:   7    -0.747665504190E+02    0.11786E-03   -0.27589E-03  7606   0.160E-01    0.146E-01
RMM:   8    -0.747662327585E+02    0.31766E-03   -0.42580E-04  7374   0.837E-02    0.670E-02
RMM:   9    -0.747661376946E+02    0.95064E-04   -0.72386E-05  7253   0.302E-02    0.289E-02
RMM:  10    -0.747661236812E+02    0.14013E-04   -0.36609E-05  5613   0.211E-02    0.194E-02
RMM:  11    -0.747661214778E+02    0.22033E-05   -0.44656E-05  6288   0.222E-02
  36 F= -.74766121E+02 E0= -.74708967E+02  d E =-.444209E-01
 curvature:  -4.27 expect dE=-0.163E-01 dE for cont linesearch -0.102E-01
 ZBRENT: increasing intervall
 opt :  13.4331  next Energy=   -74.778060 (dE=-0.564E-01)
 bond charge predicted
       N       E                     dE             d eps       ncg     rms          rms(c)
DAV:   1    -0.746823728543E+02    0.83751E-01   -0.48232E+01  7380   0.194E+01    0.893E-01
RMM:   2    -0.748614449026E+02   -0.17907E+00   -0.11095E+00  7406   0.512E+00    0.224E+00
RMM:   3    -0.748442309529E+02    0.17214E-01   -0.17881E-01  8338   0.120E+00    0.161E+00
RMM:   4    -0.747980623042E+02    0.46169E-01   -0.23554E-02  7422   0.721E-01    0.838E-01
RMM:   5    -0.747884226355E+02    0.96397E-02   -0.39807E-03  7411   0.243E-01    0.491E-01
RMM:   6    -0.747849428467E+02    0.34798E-02   -0.50237E-03  7399   0.222E-01    0.353E-01
RMM:   7    -0.747842582070E+02    0.68464E-03   -0.15664E-02  7549   0.382E-01    0.307E-01
RMM:   8    -0.747828919133E+02    0.13663E-02   -0.24177E-03  7427   0.208E-01    0.155E-01
RMM:   9    -0.747824528304E+02    0.43908E-03   -0.39484E-04  7407   0.736E-02    0.737E-02
RMM:  10    -0.747823699809E+02    0.82850E-04   -0.17724E-04  7343   0.481E-02    0.525E-02
RMM:  11    -0.747823308964E+02    0.39084E-04   -0.16939E-04  7321   0.401E-02    0.232E-02
RMM:  12    -0.747823499541E+02   -0.19058E-04   -0.27393E-05  5064   0.224E-02    0.929E-03
RMM:  13    -0.747823618160E+02   -0.11862E-04   -0.99539E-06  4442   0.155E-02    0.452E-03
RMM:  14    -0.747823792071E+02   -0.17391E-04   -0.45617E-06  4473   0.102E-02    0.486E-03
RMM:  15    -0.747823862630E+02   -0.70559E-05   -0.17613E-06  4366   0.629E-03
  37 F= -.74782386E+02 E0= -.74724019E+02  d E =-.606856E-01
 curvature:  -4.99 expect dE=-0.358E-01 dE for cont linesearch -0.950E-03
 ZBRENT: bracketing found
 ZBRENT: interpolating
 opt :  11.6595  next Energy=   -74.783786 (dE=-0.621E-01)
 bond charge predicted
       N       E                     dE             d eps       ncg     rms          rms(c)
DAV:   1    -0.747805750327E+02    0.18042E-02   -0.23410E+00  7452   0.422E+00    0.174E-01
RMM:   2    -0.747851435351E+02   -0.45685E-02   -0.35954E-02  7418   0.788E-01    0.285E-01
RMM:   3    -0.747864595057E+02   -0.13160E-02   -0.43985E-03  9734   0.221E-01    0.381E-01
RMM:   4    -0.747844415752E+02    0.20179E-02   -0.67886E-04  7437   0.929E-02    0.181E-01
RMM:   5    -0.747839067170E+02    0.53486E-03   -0.22634E-04  7366   0.509E-02    0.885E-02
RMM:   6    -0.747838288675E+02    0.77849E-04   -0.28404E-04  7383   0.525E-02    0.734E-02
RMM:   7    -0.747838254356E+02    0.34319E-05   -0.54128E-04  7556   0.702E-02    0.676E-02
RMM:   8    -0.747837491164E+02    0.76319E-04   -0.81048E-05  7100   0.347E-02    0.261E-02
RMM:   9    -0.747837329976E+02    0.16119E-04   -0.13147E-05  4305   0.138E-02    0.137E-02
RMM:  10    -0.747837284128E+02    0.45848E-05   -0.87851E-06  4211   0.148E-02
  38 F= -.74783728E+02 E0= -.74725643E+02  d E =-.620278E-01
 curvature:  -7.35 expect dE=-0.376E-01 dE for cont linesearch -0.485E-05
 trial: gam= 0.52694 g(F)=  0.511E-02 g(S)=  0.000E+00 ort =-0.929E-04 (trialstep = 0.341E+01)
 search vector abs. value=  0.865E-02
 bond charge predicted
       N       E                     dE             d eps       ncg     rms          rms(c)
DAV:   1    -0.747914047411E+02   -0.76717E-02   -0.56595E+00  7380   0.650E+00    0.236E-01
RMM:   2    -0.747995503435E+02   -0.81456E-02   -0.82848E-02  7420   0.125E+00    0.193E-01
RMM:   3    -0.748063413871E+02   -0.67910E-02   -0.98143E-03  9871   0.314E-01    0.630E-01
RMM:   4    -0.747998811952E+02    0.64602E-02   -0.91485E-04  7587   0.998E-02    0.182E-01
RMM:   5    -0.747994422363E+02    0.43896E-03   -0.23834E-04  7385   0.567E-02    0.135E-01
RMM:   6    -0.747992541772E+02    0.18806E-03   -0.24471E-04  7402   0.486E-02    0.109E-01
RMM:   7    -0.747991645606E+02    0.89617E-04   -0.15691E-03  7413   0.118E-01    0.106E-01
RMM:   8    -0.747990607581E+02    0.10380E-03   -0.41706E-04  7753   0.697E-02    0.559E-02
RMM:   9    -0.747990028240E+02    0.57934E-04   -0.44538E-05  6309   0.260E-02    0.327E-02
RMM:  10    -0.747989794445E+02    0.23380E-04   -0.17065E-05  4209   0.173E-02    0.181E-02
RMM:  11    -0.747989695870E+02    0.98574E-05   -0.48064E-05  6602   0.205E-02
  39 F= -.74798970E+02 E0= -.74740773E+02  d E =-.152412E-01
 trial-energy change:   -0.015241  1 .order   -0.014925   -0.017245   -0.012605
 step:   8.1000(harm= 12.6620)  dis= 0.02749  next Energy=   -74.808480 (dE=-0.248E-01)
 bond charge predicted
       N       E                     dE             d eps       ncg     rms          rms(c)
DAV:   1    -0.747967804776E+02    0.21990E-02   -0.10739E+01  7380   0.897E+00    0.338E-01
RMM:   2    -0.748128780686E+02   -0.16098E-01   -0.16695E-01  7420   0.187E+00    0.263E-01
RMM:   3    -0.748143652190E+02   -0.14872E-02   -0.20418E-02  9442   0.431E-01    0.296E-01
RMM:   4    -0.748133236870E+02    0.10415E-02   -0.10459E-03  7482   0.138E-01    0.212E-01
RMM:   5    -0.748135857600E+02   -0.26207E-03   -0.27615E-04  7462   0.497E-02    0.263E-01
RMM:   6    -0.748128327422E+02    0.75302E-03   -0.26633E-04  7413   0.534E-02    0.173E-01
RMM:   7    -0.748125210032E+02    0.31174E-03   -0.26885E-03  7399   0.157E-01    0.158E-01
RMM:   8    -0.748122847191E+02    0.23628E-03   -0.12502E-03  7973   0.112E-01    0.812E-02
RMM:   9    -0.748121629044E+02    0.12181E-03   -0.10974E-04  7314   0.428E-02    0.468E-02
RMM:  10    -0.748121176734E+02    0.45231E-04   -0.31003E-05  5071   0.194E-02    0.284E-02
RMM:  11    -0.748120920917E+02    0.25582E-04   -0.95700E-05  7228   0.291E-02    0.923E-03
RMM:  12    -0.748120910232E+02    0.10685E-05   -0.14168E-05  4192   0.181E-02
  40 F= -.74812091E+02 E0= -.74753760E+02  d E =-.283626E-01
 curvature:  -8.19 expect dE=-0.955E-02 dE for cont linesearch -0.299E-02
 ZBRENT: increasing intervall
 opt :  17.4870  next Energy=   -74.810736 (dE=-0.270E-01)
 bond charge predicted
       N       E                     dE             d eps       ncg     rms          rms(c)
DAV:   1    -0.747312902557E+02    0.80802E-01   -0.42902E+01  7380   0.180E+01    0.783E-01
RMM:   2    -0.748157403963E+02   -0.84450E-01   -0.85592E-01  7418   0.461E+00    0.831E-01
RMM:   3    -0.748992882750E+02   -0.83548E-01   -0.14528E-01  9029   0.108E+00    0.207E+00
RMM:   4    -0.748226428125E+02    0.76645E-01   -0.15550E-02  7489   0.491E-01    0.714E-01
RMM:   5    -0.748151609444E+02    0.74819E-02   -0.31945E-03  7421   0.215E-01    0.427E-01
RMM:   6    -0.748134260547E+02    0.17349E-02   -0.12894E-03  7496   0.112E-01    0.359E-01
RMM:   7    -0.748118626116E+02    0.15634E-02   -0.87363E-03  7409   0.298E-01    0.342E-01
RMM:   8    -0.748107538131E+02    0.11088E-02   -0.85403E-03  7944   0.290E-01    0.187E-01
RMM:   9    -0.748102245460E+02    0.52927E-03   -0.83163E-04  7538   0.118E-01    0.966E-02
RMM:  10    -0.748100557327E+02    0.16881E-03   -0.13175E-04  7361   0.415E-02    0.652E-02
RMM:  11    -0.748099135598E+02    0.14217E-03   -0.42043E-04  7386   0.608E-02    0.214E-02
RMM:  12    -0.748099102563E+02    0.33036E-05   -0.58058E-05  6560   0.352E-02
  41 F= -.74809910E+02 E0= -.74751501E+02  d E =-.261818E-01
 curvature:   3.71 expect dE= 0.116E-01 dE for cont linesearch  0.243E-02
 ZBRENT: bracketing found
 ZBRENT: interpolating
 opt :  12.1114  next Energy=   -74.815657 (dE=-0.319E-01)
 bond charge predicted
       N       E                     dE             d eps       ncg     rms          rms(c)
DAV:   1    -0.747942407050E+02    0.15673E-01   -0.14074E+01  7380   0.103E+01    0.418E-01
RMM:   2    -0.748196990244E+02   -0.25458E-01   -0.23805E-01  7418   0.232E+00    0.533E-01
RMM:   3    -0.748439345249E+02   -0.24236E-01   -0.33185E-02  8464   0.533E-01    0.118E+00
RMM:   4    -0.748179792611E+02    0.25955E-01   -0.45248E-03  7431   0.282E-01    0.262E-01
RMM:   5    -0.748169920083E+02    0.98725E-03   -0.62671E-04  7446   0.923E-02    0.203E-01
RMM:   6    -0.748168798360E+02    0.11217E-03   -0.18772E-03  7420   0.130E-01    0.232E-01
RMM:   7    -0.748161912565E+02    0.68858E-03   -0.27839E-03  7568   0.167E-01    0.131E-01
RMM:   8    -0.748160557817E+02    0.13547E-03   -0.69982E-04  7932   0.919E-02    0.758E-02
RMM:   9    -0.748159630308E+02    0.92751E-04   -0.84269E-05  7230   0.354E-02    0.509E-02
RMM:  10    -0.748159135543E+02    0.49476E-04   -0.33001E-05  5282   0.197E-02    0.351E-02
RMM:  11    -0.748158781535E+02    0.35401E-04   -0.11338E-04  7302   0.328E-02    0.146E-02
RMM:  12    -0.748158751601E+02    0.29934E-05   -0.23704E-05  4593   0.205E-02
  42 F= -.74815875E+02 E0= -.74757483E+02  d E =-.321467E-01
 curvature:  -5.43 expect dE=-0.590E-02 dE for cont linesearch -0.331E-04
 trial: gam= 0.16408 g(F)=  0.109E-02 g(S)=  0.000E+00 ort = 0.229E-03 (trialstep = 0.515E+01)
 search vector abs. value=  0.139E-02
 bond charge predicted
       N       E                     dE             d eps       ncg     rms          rms(c)
DAV:   1    -0.748168899426E+02   -0.10118E-02   -0.20680E+00  7380   0.403E+00    0.146E-01
RMM:   2    -0.748233750155E+02   -0.64851E-02   -0.32100E-02  7416   0.726E-01    0.454E-01
RMM:   3    -0.748205325084E+02    0.28425E-02   -0.36877E-03  9773   0.207E-01    0.173E-01
RMM:   4    -0.748201315401E+02    0.40097E-03   -0.33629E-04  7421   0.656E-02    0.119E-01
RMM:   5    -0.748199759951E+02    0.15555E-03   -0.13519E-04  7354   0.400E-02    0.889E-02
RMM:   6    -0.748199031057E+02    0.72889E-04   -0.31743E-04  7392   0.570E-02    0.688E-02
RMM:   7    -0.748198469494E+02    0.56156E-04   -0.31560E-04  7496   0.540E-02    0.307E-02
RMM:   8    -0.748198340121E+02    0.12937E-04   -0.32384E-05  5382   0.268E-02    0.198E-02
RMM:   9    -0.748198275744E+02    0.64376E-05   -0.96675E-06  4200   0.171E-02
  43 F= -.74819828E+02 E0= -.74761686E+02  d E =-.395241E-02
 trial-energy change:   -0.003952  1 .order   -0.004072   -0.005781   -0.002363
 step:  12.2586(harm=  8.7062)  dis= 0.01632  next Energy=   -74.821145 (dE=-0.527E-02)
 bond charge predicted
       N       E                     dE             d eps       ncg     rms          rms(c)
DAV:   1    -0.748141641714E+02    0.56698E-02   -0.39445E+00  7380   0.556E+00    0.208E-01
RMM:   2    -0.748270790780E+02   -0.12915E-01   -0.63102E-02  7412   0.105E+00    0.645E-01
RMM:   3    -0.748214113649E+02    0.56677E-02   -0.77124E-03  9826   0.283E-01    0.248E-01
RMM:   4    -0.748205155682E+02    0.89580E-03   -0.64956E-04  7418   0.920E-02    0.162E-01
RMM:   5    -0.748202472461E+02    0.26832E-03   -0.26045E-04  7397   0.564E-02    0.125E-01
RMM:   6    -0.748200957475E+02    0.15150E-03   -0.61525E-04  7401   0.799E-02    0.934E-02
RMM:   7    -0.748199955874E+02    0.10016E-03   -0.61906E-04  7529   0.763E-02    0.423E-02
RMM:   8    -0.748199727176E+02    0.22870E-04   -0.70496E-05  7150   0.373E-02    0.284E-02
RMM:   9    -0.748199589174E+02    0.13800E-04   -0.11961E-05  4301   0.143E-02    0.186E-02
RMM:  10    -0.748199508406E+02    0.80768E-05   -0.11640E-05  4248   0.146E-02
  44 F= -.74819951E+02 E0= -.74762189E+02  d E =-.407568E-02
 curvature:  -0.02 expect dE=-0.235E-04 dE for cont linesearch -0.258E-05
 trial: gam= 0.00000 g(F)=  0.124E-02 g(S)=  0.000E+00 ort =-0.436E-03 (trialstep = 0.657E+01)
 search vector abs. value=  0.124E-02
 reached required accuracy - stopping structural energy minimisation
 writing wavefunctions
