 running on   20 total cores
 distrk:  each k-point on   20 cores,    1 groups
 distr:  one band on    1 cores,   20 groups
 using from now: INCAR     
 vasp.5.4.1 05Feb16 (build Sep 02 2018 21:45:25) complex                        
  
 POSCAR found type information on POSCAR  Li H 
 POSCAR found :  2 types and      63 ions
 scaLAPACK will be used

 ----------------------------------------------------------------------------- 
|                                                                             |
|           W    W    AA    RRRRR   N    N  II  N    N   GGGG   !!!           |
|           W    W   A  A   R    R  NN   N  II  NN   N  G    G  !!!           |
|           W    W  A    A  R    R  N N  N  II  N N  N  G       !!!           |
|           W WW W  AAAAAA  RRRRR   N  N N  II  N  N N  G  GGG   !            |
|           WW  WW  A    A  R   R   N   NN  II  N   NN  G    G                |
|           W    W  A    A  R    R  N    N  II  N    N   GGGG   !!!           |
|                                                                             |
|      For optimal performance we recommend to set                            |
|        NCORE= 4 - approx SQRT( number of cores)                             |
|      NCORE specifies how many cores store one orbital (NPAR=cpu/NCORE).     |
|      This setting can  greatly improve the performance of VASP for DFT.     |
|      The default, NPAR=number of cores might be grossly inefficient         |
|      on modern multi-core architectures or massively parallel machines.     |
|      Do your own testing !!!!                                               |
|      Unfortunately you need to use the default for GW and RPA calculations. |
|      (for HF NCORE is supported but not extensively tested yet)             |
|                                                                             |
 ----------------------------------------------------------------------------- 


 ----------------------------------------------------------------------------- 
|                                                                             |
|  ADVICE TO THIS USER RUNNING 'VASP/VAMP'   (HEAR YOUR MASTER'S VOICE ...):  |
|                                                                             |
|      You have a (more or less) 'large supercell' and for larger cells       |
|      it might be more efficient to use real space projection operators      |
|      So try LREAL= Auto  in the INCAR   file.                               |
|      Mind: If you want to do a very accurate calculations keep the          |
|      reciprocal projection scheme          (i.e. LREAL=.FALSE.)             |
|                                                                             |
 ----------------------------------------------------------------------------- 

 LDA part: xc-table for Ceperly-Alder, standard interpolation
 POSCAR, INCAR and KPOINTS ok, starting setup
 WARNING: small aliasing (wrap around) errors must be expected
 FFT: planning ...
 WAVECAR not read
 entering main loop
       N       E                     dE             d eps       ncg     rms          rms(c)
DAV:   1    -0.403346313464E+02   -0.40335E+02   -0.20207E+04  1600   0.584E+02
DAV:   2    -0.190834529011E+03   -0.15050E+03   -0.14438E+03  2020   0.909E+01
DAV:   3    -0.200162842114E+03   -0.93283E+01   -0.92885E+01  2080   0.213E+01
DAV:   4    -0.200223315205E+03   -0.60473E-01   -0.60461E-01  1980   0.178E+00
DAV:   5    -0.200223573223E+03   -0.25802E-03   -0.25801E-03  2020   0.119E-01    0.152E+01
DAV:   6    -0.194274467680E+03    0.59491E+01   -0.29176E+00  1900   0.331E+00    0.770E+00
DAV:   7    -0.192357019718E+03    0.19174E+01   -0.42540E+00  1920   0.413E+00    0.102E+00
DAV:   8    -0.192407921953E+03   -0.50902E-01   -0.11454E-01  1820   0.729E-01    0.424E-01
DAV:   9    -0.192402675493E+03    0.52465E-02   -0.71051E-03  2020   0.178E-01    0.750E-02
DAV:  10    -0.192402389805E+03    0.28569E-03   -0.11295E-03  1980   0.717E-02    0.300E-02
DAV:  11    -0.192402367684E+03    0.22121E-04   -0.76482E-05  1960   0.197E-02    0.585E-03
DAV:  12    -0.192402353320E+03    0.14364E-04   -0.14921E-06  1340   0.351E-03    0.582E-03
DAV:  13    -0.192402342989E+03    0.10331E-04   -0.16976E-06  1300   0.339E-03    0.107E-03
DAV:  14    -0.192402341706E+03    0.12821E-05   -0.40898E-07  1260   0.179E-03
   1 F= -.19240234E+03 E0= -.19240193E+03  d E =-.192402E+03
 curvature:   0.00 expect dE= 0.000E+00 dE for cont linesearch  0.000E+00
 trial: gam= 0.00000 g(F)=  0.523E-02 g(S)=  0.000E+00 ort = 0.000E+00 (trialstep = 0.100E+01)
 search vector abs. value=  0.523E-02
 bond charge predicted
       N       E                     dE             d eps       ncg     rms          rms(c)
DAV:   1    -0.192407452799E+03   -0.51098E-02   -0.23806E-03  1780   0.113E-01    0.786E-03
DAV:   2    -0.192407456874E+03   -0.40748E-05   -0.64040E-05  2040   0.185E-02
   2 F= -.19240746E+03 E0= -.19240706E+03  d E =-.511517E-02
 ZBRENT: can't locate minimum, use default step
 trial-energy change:   -0.005115  1 .order   -0.005114   -0.005232   -0.004996
 step:   4.0000(harm= 22.1528)  dis= 0.01100  next Energy=  -192.460294 (dE=-0.580E-01)
 bond charge predicted
       N       E                     dE             d eps       ncg     rms          rms(c)
DAV:   1    -0.192421358535E+03   -0.13906E-01   -0.21399E-02  1640   0.339E-01    0.259E-02
DAV:   2    -0.192421383186E+03   -0.24651E-04   -0.54594E-04  2060   0.544E-02    0.214E-02
DAV:   3    -0.192421366790E+03    0.16397E-04   -0.14409E-05  1840   0.152E-02    0.809E-03
DAV:   4    -0.192421368040E+03   -0.12505E-05   -0.26186E-05  1960   0.129E-02
   3 F= -.19242137E+03 E0= -.19242099E+03  d E =-.190263E-01
 curvature:  -2.92 expect dE=-0.102E-01 dE for cont linesearch -0.102E-01
 ZBRENT: increasing intervall
 opt :  10.0000  next Energy=  -192.442704 (dE=-0.404E-01)
 bond charge predicted
       N       E                     dE             d eps       ncg     rms          rms(c)
DAV:   1    -0.192442724257E+03   -0.21357E-01   -0.85379E-02  1640   0.678E-01    0.466E-02
DAV:   2    -0.192442867276E+03   -0.14302E-03   -0.24408E-03  2060   0.114E-01    0.406E-02
DAV:   3    -0.192442810844E+03    0.56433E-04   -0.40713E-05  1980   0.252E-02    0.195E-02
DAV:   4    -0.192442804261E+03    0.65824E-05   -0.82133E-05  2000   0.259E-02
   4 F= -.19244280E+03 E0= -.19244247E+03  d E =-.404626E-01
 curvature:  -6.11 expect dE=-0.100E-01 dE for cont linesearch -0.955E-02
 ZBRENT: increasing intervall
 opt :  22.0000  next Energy=  -192.460166 (dE=-0.578E-01)
 bond charge predicted
       N       E                     dE             d eps       ncg     rms          rms(c)
DAV:   1    -0.192460166949E+03   -0.17356E-01   -0.33961E-01  1620   0.136E+00    0.905E-02
DAV:   2    -0.192460792840E+03   -0.62589E-03   -0.10187E-02  2040   0.232E-01    0.826E-02
DAV:   3    -0.192460565609E+03    0.22723E-03   -0.15544E-04  1980   0.492E-02    0.421E-02
DAV:   4    -0.192460520672E+03    0.44937E-04   -0.33919E-04  2000   0.541E-02    0.137E-02
DAV:   5    -0.192460531109E+03   -0.10437E-04   -0.14414E-04  1820   0.294E-02    0.860E-03
DAV:   6    -0.192460531752E+03   -0.64328E-06   -0.65430E-06  1240   0.569E-03
   5 F= -.19246053E+03 E0= -.19246025E+03  d E =-.581900E-01
 curvature: -11.09 expect dE=-0.426E-02 dE for cont linesearch -0.184E-04
 trial: gam= 0.05563 g(F)=  0.384E-03 g(S)=  0.000E+00 ort = 0.931E-04 (trialstep = 0.520E+01)
 search vector abs. value=  0.411E-03
 bond charge predicted
       N       E                     dE             d eps       ncg     rms          rms(c)
DAV:   1    -0.192462349530E+03   -0.18184E-02   -0.51512E-03  1620   0.188E-01    0.147E-02
DAV:   2    -0.192462373546E+03   -0.24016E-04   -0.35039E-04  2060   0.471E-02    0.149E-02
DAV:   3    -0.192462368073E+03    0.54730E-05   -0.21861E-06  1320   0.589E-03
   6 F= -.19246237E+03 E0= -.19246209E+03  d E =-.183632E-02
 ZBRENT: can't locate minimum, use default step
 trial-energy change:   -0.001836  1 .order   -0.001841   -0.002024   -0.001658
 step:  20.8000(harm= 28.7181)  dis= 0.00821  next Energy=  -192.466122 (dE=-0.559E-02)
 bond charge predicted
       N       E                     dE             d eps       ncg     rms          rms(c)
DAV:   1    -0.192465458069E+03   -0.30845E-02   -0.46109E-02  1620   0.562E-01    0.436E-02
DAV:   2    -0.192465651501E+03   -0.19343E-03   -0.28733E-03  2060   0.136E-01    0.424E-02
DAV:   3    -0.192465604186E+03    0.47315E-04   -0.21589E-05  1940   0.180E-02    0.261E-02
DAV:   4    -0.192465583521E+03    0.20665E-04   -0.67895E-05  2060   0.262E-02    0.281E-03
DAV:   5    -0.192465587824E+03   -0.43033E-05   -0.41580E-05  1500   0.156E-02
   7 F= -.19246559E+03 E0= -.19246531E+03  d E =-.505607E-02
 curvature: -13.43 expect dE=-0.546E-03 dE for cont linesearch -0.304E-03
 ZBRENT: extrapolating
 opt :  27.5630  next Energy=  -192.465914 (dE=-0.538E-02)
 bond charge predicted
       N       E                     dE             d eps       ncg     rms          rms(c)
DAV:   1    -0.192465892204E+03   -0.30868E-03   -0.86841E-03  1620   0.245E-01    0.191E-02
DAV:   2    -0.192465934761E+03   -0.42557E-04   -0.61024E-04  2040   0.621E-02    0.188E-02
DAV:   3    -0.192465925374E+03    0.93871E-05   -0.36540E-06  1480   0.771E-03
   8 F= -.19246593E+03 E0= -.19246565E+03  d E =-.539362E-02
 curvature: -14.40 expect dE=-0.489E-03 dE for cont linesearch -0.928E-06
 trial: gam= 0.09217 g(F)=  0.340E-04 g(S)=  0.000E+00 ort = 0.514E-05 (trialstep = 0.967E+01)
 search vector abs. value=  0.384E-04
 bond charge predicted
       N       E                     dE             d eps       ncg     rms          rms(c)
DAV:   1    -0.192466149764E+03   -0.21500E-03   -0.18132E-03  1680   0.117E-01    0.790E-03
DAV:   2    -0.192466164344E+03   -0.14579E-04   -0.17459E-04  2080   0.313E-02    0.101E-02
DAV:   3    -0.192466163041E+03    0.13028E-05   -0.77451E-07  1200   0.272E-03
   9 F= -.19246616E+03 E0= -.19246589E+03  d E =-.237667E-03
 trial-energy change:   -0.000238  1 .order   -0.000244   -0.000333   -0.000155
 step:  18.1266(harm= 18.1266)  dis= 0.00242  next Energy=  -192.466238 (dE=-0.312E-03)
 bond charge predicted
       N       E                     dE             d eps       ncg     rms          rms(c)
DAV:   1    -0.192466218689E+03   -0.54346E-04   -0.14065E-03  1700   0.995E-02    0.714E-03
DAV:   2    -0.192466225068E+03   -0.63789E-05   -0.87281E-05  2060   0.236E-02
  10 F= -.19246623E+03 E0= -.19246595E+03  d E =-.299694E-03
 curvature: -10.11 expect dE=-0.306E-05 dE for cont linesearch -0.386E-07
 trial: gam= 0.02627 g(F)=  0.303E-06 g(S)=  0.000E+00 ort =-0.383E-06 (trialstep = 0.114E+02)
 search vector abs. value=  0.309E-06
 reached required accuracy - stopping structural energy minimisation
