 running on   20 total cores
 distrk:  each k-point on   20 cores,    1 groups
 distr:  one band on    1 cores,   20 groups
 using from now: INCAR     
 vasp.5.4.1 05Feb16 (build Sep 02 2018 21:45:25) complex                        
  
 POSCAR found type information on POSCAR  Li
 POSCAR found :  1 types and       2 ions
 scaLAPACK will be used

 ----------------------------------------------------------------------------- 
|                                                                             |
|           W    W    AA    RRRRR   N    N  II  N    N   GGGG   !!!           |
|           W    W   A  A   R    R  NN   N  II  NN   N  G    G  !!!           |
|           W    W  A    A  R    R  N N  N  II  N N  N  G       !!!           |
|           W WW W  AAAAAA  RRRRR   N  N N  II  N  N N  G  GGG   !            |
|           WW  WW  A    A  R   R   N   NN  II  N   NN  G    G                |
|           W    W  A    A  R    R  N    N  II  N    N   GGGG   !!!           |
|                                                                             |
|      For optimal performance we recommend to set                            |
|        NCORE= 4 - approx SQRT( number of cores)                             |
|      NCORE specifies how many cores store one orbital (NPAR=cpu/NCORE).     |
|      This setting can  greatly improve the performance of VASP for DFT.     |
|      The default, NPAR=number of cores might be grossly inefficient         |
|      on modern multi-core architectures or massively parallel machines.     |
|      Do your own testing !!!!                                               |
|      Unfortunately you need to use the default for GW and RPA calculations. |
|      (for HF NCORE is supported but not extensively tested yet)             |
|                                                                             |
 ----------------------------------------------------------------------------- 

 LDA part: xc-table for Ceperly-Alder, standard interpolation
 POSCAR, INCAR and KPOINTS ok, starting setup
 WARNING: small aliasing (wrap around) errors must be expected
 FFT: planning ...
 WAVECAR not read
 entering main loop
       N       E                     dE             d eps       ncg     rms          rms(c)
DAV:   1    -0.357065296344E+01   -0.35707E+01   -0.59918E+02  4800   0.596E+01
DAV:   2    -0.380363200638E+01   -0.23298E+00   -0.23038E+00  7000   0.266E+00
DAV:   3    -0.380372597202E+01   -0.93966E-04   -0.93965E-04  5060   0.672E-02
DAV:   4    -0.380372598060E+01   -0.85778E-08   -0.85974E-08  8040   0.510E-04
DAV:   5    -0.380372598059E+01    0.34142E-11   -0.85862E-13  4980   0.684E-07    0.165E-01
DAV:   6    -0.378444879754E+01    0.19277E-01   -0.27012E-03  6180   0.771E-02    0.118E-01
DAV:   7    -0.378082570700E+01    0.36231E-02   -0.48495E-03  5860   0.100E-01    0.183E-02
DAV:   8    -0.378038188061E+01    0.44383E-03   -0.15714E-04  5500   0.182E-02    0.394E-03
DAV:   9    -0.378032594080E+01    0.55940E-04   -0.23193E-05  6440   0.691E-03    0.803E-04
DAV:  10    -0.378032570269E+01    0.23811E-06   -0.94016E-08  2680   0.480E-04
   1 F= -.37803257E+01 E0= -.37803096E+01  d E =-.378033E+01
 curvature:   0.00 expect dE= 0.000E+00 dE for cont linesearch  0.000E+00
 trial: gam= 0.00000 g(F)=  0.180E-67 g(S)=  0.551E-03 ort = 0.000E+00 (trialstep = 0.100E+01)
 search vector abs. value=  0.551E-03
 bond charge predicted
       N       E                     dE             d eps       ncg     rms          rms(c)
DAV:   1    -0.378086431603E+01   -0.53838E-03   -0.38970E-05  5000   0.863E-03    0.106E-03
DAV:   2    -0.378086492297E+01   -0.60694E-06   -0.78318E-08  2960   0.614E-04
   2 F= -.37808649E+01 E0= -.37808491E+01  d E =-.539220E-03
 ZBRENT: can't locate minimum, use default step
 trial-energy change:   -0.000539  1 .order   -0.000538   -0.000551   -0.000525
 step:   4.0000(harm= 21.0385)  dis= 0.00000  next Energy=    -3.786127 (dE=-0.580E-02)
 bond charge predicted
       N       E                     dE             d eps       ncg     rms          rms(c)
DAV:   1    -0.378233018208E+01   -0.14659E-02   -0.35901E-04  4960   0.263E-02    0.312E-03
DAV:   2    -0.378233114169E+01   -0.95961E-06   -0.68746E-07  6420   0.188E-03
   3 F= -.37823311E+01 E0= -.37823161E+01  d E =-.200544E-02
 curvature:  -2.91 expect dE=-0.105E-02 dE for cont linesearch -0.105E-02
 ZBRENT: increasing intervall
 opt :  10.0000  next Energy=    -3.784532 (dE=-0.421E-02)
 bond charge predicted
       N       E                     dE             d eps       ncg     rms          rms(c)
DAV:   1    -0.378455523468E+01   -0.22251E-02   -0.14703E-03  4940   0.534E-02    0.624E-03
DAV:   2    -0.378455497042E+01    0.26426E-06   -0.26975E-06  6620   0.376E-03
   4 F= -.37845550E+01 E0= -.37845414E+01  d E =-.422927E-02
 curvature:  -6.10 expect dE=-0.894E-03 dE for cont linesearch -0.894E-03
 ZBRENT: increasing intervall
 opt :  22.0000  next Energy=    -3.786025 (dE=-0.570E-02)
 bond charge predicted
       N       E                     dE             d eps       ncg     rms          rms(c)
DAV:   1    -0.378603654874E+01   -0.14813E-02   -0.60264E-03  4960   0.109E-01    0.127E-02
DAV:   2    -0.378602633176E+01    0.10217E-04   -0.11155E-05  6620   0.767E-03    0.836E-03
DAV:   3    -0.378604088890E+01   -0.14557E-04   -0.22594E-05  5560   0.681E-03    0.132E-03
DAV:   4    -0.378603615274E+01    0.47362E-05   -0.78991E-07  3380   0.128E-03
   5 F= -.37860362E+01 E0= -.37860252E+01  d E =-.571045E-02
 curvature: -10.03 expect dE=-0.469E-04 dE for cont linesearch -0.469E-04
 trial: gam= 0.00000 g(F)=  0.328E-67 g(S)=  0.467E-05 ort =-0.508E-04 (trialstep = 0.520E+01)
 search vector abs. value=  0.467E-05
 reached required accuracy - stopping structural energy minimisation
