 running on   40 total cores
 distrk:  each k-point on   40 cores,    1 groups
 distr:  one band on    1 cores,   40 groups
 using from now: INCAR     
 vasp.5.4.1 05Feb16 (build Sep 02 2018 21:45:25) complex                        
  
 POSCAR found type information on POSCAR  Cu
 POSCAR found :  1 types and      64 ions
 scaLAPACK will be used

 ----------------------------------------------------------------------------- 
|                                                                             |
|           W    W    AA    RRRRR   N    N  II  N    N   GGGG   !!!           |
|           W    W   A  A   R    R  NN   N  II  NN   N  G    G  !!!           |
|           W    W  A    A  R    R  N N  N  II  N N  N  G       !!!           |
|           W WW W  AAAAAA  RRRRR   N  N N  II  N  N N  G  GGG   !            |
|           WW  WW  A    A  R   R   N   NN  II  N   NN  G    G                |
|           W    W  A    A  R    R  N    N  II  N    N   GGGG   !!!           |
|                                                                             |
|      For optimal performance we recommend to set                            |
|        NCORE= 4 - approx SQRT( number of cores)                             |
|      NCORE specifies how many cores store one orbital (NPAR=cpu/NCORE).     |
|      This setting can  greatly improve the performance of VASP for DFT.     |
|      The default, NPAR=number of cores might be grossly inefficient         |
|      on modern multi-core architectures or massively parallel machines.     |
|      Do your own testing !!!!                                               |
|      Unfortunately you need to use the default for GW and RPA calculations. |
|      (for HF NCORE is supported but not extensively tested yet)             |
|                                                                             |
 ----------------------------------------------------------------------------- 

 LDA part: xc-table for Ceperly-Alder, standard interpolation
 POSCAR, INCAR and KPOINTS ok, starting setup
 WARNING: small aliasing (wrap around) errors must be expected
 FFT: planning ...
 WAVECAR not read
 WARNING: random wavefunctions but no delay for mixing, default for NELMDL
 entering main loop
       N       E                     dE             d eps       ncg     rms          rms(c)
DAV:   1     0.535707934462E+04    0.53571E+04   -0.31395E+05 14080   0.190E+03
DAV:   2     0.272301264575E+03   -0.50848E+04   -0.48526E+04 14080   0.409E+02
DAV:   3    -0.257477703812E+03   -0.52978E+03   -0.50346E+03 14920   0.164E+02
DAV:   4    -0.272467754135E+03   -0.14990E+02   -0.14919E+02 15360   0.317E+01
DAV:   5    -0.272556664134E+03   -0.88910E-01   -0.88903E-01 15520   0.213E+00    0.530E+01
DAV:   6    -0.247098807691E+03    0.25458E+02   -0.53687E+02 15960   0.893E+01    0.267E+01
DAV:   7    -0.224423362128E+03    0.22675E+02   -0.10331E+02 15640   0.411E+01    0.330E+00
DAV:   8    -0.224508895365E+03   -0.85533E-01   -0.61853E+00 17960   0.197E+01    0.484E+00
DAV:   9    -0.224154041276E+03    0.35485E+00   -0.43516E+00 16520   0.189E+01    0.333E+00
DAV:  10    -0.223973283986E+03    0.18076E+00   -0.98139E-01 21120   0.835E+00    0.232E+00
DAV:  11    -0.223875671693E+03    0.97612E-01   -0.45182E-01 14840   0.383E+00    0.605E-01
DAV:  12    -0.223873500032E+03    0.21717E-02   -0.11920E-01 14880   0.120E+00    0.274E-01
DAV:  13    -0.223858990667E+03    0.14509E-01   -0.12035E-02 16720   0.788E-01    0.163E-01
DAV:  14    -0.223851658983E+03    0.73317E-02   -0.79580E-03 14560   0.705E-01    0.113E-01
DAV:  15    -0.223850854999E+03    0.80398E-03   -0.27810E-03 14320   0.392E-01    0.908E-02
DAV:  16    -0.223853569323E+03   -0.27143E-02   -0.20091E-03 14320   0.341E-01    0.489E-02
DAV:  17    -0.223861246627E+03   -0.76773E-02   -0.57035E-03 18480   0.620E-01    0.113E-01
DAV:  18    -0.223864624521E+03   -0.33779E-02   -0.83272E-03 18760   0.757E-01    0.298E-02
DAV:  19    -0.223866494030E+03   -0.18695E-02   -0.12729E-03 14400   0.151E-01    0.607E-02
DAV:  20    -0.223866544065E+03   -0.50036E-04   -0.60166E-04 15040   0.194E-01    0.251E-02
DAV:  21    -0.223866544817E+03   -0.75174E-06   -0.14126E-04 14520   0.606E-02    0.151E-02
DAV:  22    -0.223866579718E+03   -0.34901E-04   -0.66505E-05 14400   0.333E-02    0.151E-02
DAV:  23    -0.223866573590E+03    0.61282E-05   -0.17812E-05 10120   0.379E-02
   1 F= -.22386657E+03 E0= -.22386564E+03  d E =-.223867E+03
 BRION: g(F)=  0.148E-02 g(S)=  0.000E+00
 bond charge predicted
       N       E                     dE             d eps       ncg     rms          rms(c)
DAV:   1    -0.223867807856E+03   -0.12281E-02   -0.36998E-01 14360   0.987E-01    0.396E-02
DAV:   2    -0.223867855427E+03   -0.47571E-04   -0.98156E-04 16000   0.149E-01    0.371E-02
DAV:   3    -0.223867847863E+03    0.75641E-05   -0.25739E-04 15840   0.148E-01    0.264E-02
DAV:   4    -0.223867847106E+03    0.75695E-06   -0.25557E-04 15680   0.164E-01    0.248E-02
DAV:   5    -0.223867821658E+03    0.25448E-04   -0.16541E-04 10160   0.127E-01    0.529E-03
DAV:   6    -0.223867818708E+03    0.29500E-05   -0.29798E-05  9760   0.309E-02
   2 F= -.22386782E+03 E0= -.22386690E+03  d E =-.124512E-02
 BRION: g(F)=  0.102E-02 g(S)=  0.000E+00 retain N=  1 mean eig= 1.92
 eig:   1.922
 bond charge predicted
       N       E                     dE             d eps       ncg     rms          rms(c)
DAV:   1    -0.223869503788E+03   -0.16821E-02   -0.94917E-01 14080   0.158E+00    0.632E-02
DAV:   2    -0.223869652050E+03   -0.14826E-03   -0.25353E-03 16920   0.333E-01    0.693E-02
DAV:   3    -0.223869614169E+03    0.37881E-04   -0.10429E-03 16000   0.311E-01    0.408E-02
DAV:   4    -0.223869591475E+03    0.22694E-04   -0.54348E-04 16600   0.225E-01    0.337E-02
DAV:   5    -0.223869540441E+03    0.51034E-04   -0.20018E-04 17440   0.135E-01    0.937E-03
DAV:   6    -0.223869543709E+03   -0.32680E-05   -0.67784E-05 15160   0.345E-02
   3 F= -.22386954E+03 E0= -.22386864E+03  d E =-.172500E-02
 BRION: g(F)=  0.684E-03 g(S)=  0.000E+00
 BRIONS problems: POTIM should be increased
 retain N=  1 mean eig=10.55
 eig:  10.553
 bond charge predicted
       N       E                     dE             d eps       ncg     rms          rms(c)
DAV:   1    -0.223872674757E+03   -0.31343E-02   -0.19079E+01 14080   0.707E+00    0.282E-01
DAV:   2    -0.223875310722E+03   -0.26360E-02   -0.46065E-02 17200   0.132E+00    0.289E-01
DAV:   3    -0.223874943326E+03    0.36740E-03   -0.20121E-02 15960   0.133E+00    0.188E-01
DAV:   4    -0.223874553313E+03    0.39001E-03   -0.12152E-02 16000   0.110E+00    0.158E-01
DAV:   5    -0.223873641857E+03    0.91146E-03   -0.45494E-03 23440   0.615E-01    0.393E-02
DAV:   6    -0.223873702068E+03   -0.60211E-04   -0.99907E-04 15120   0.126E-01    0.290E-02
DAV:   7    -0.223873702165E+03   -0.96305E-07   -0.15763E-04 15040   0.751E-02    0.182E-02
DAV:   8    -0.223873696012E+03    0.61525E-05   -0.11539E-05  8880   0.220E-02
   4 F= -.22387370E+03 E0= -.22387290E+03  d E =-.415230E-02
 BRION: g(F)=  0.290E-03 g(S)=  0.000E+00
 BRIONS problems: POTIM should be increased
 retain N=  1 mean eig= 8.61
 eig:   8.607
 bond charge predicted
       N       E                     dE             d eps       ncg     rms          rms(c)
DAV:   1    -0.223873394267E+03    0.30790E-03   -0.42876E-01 14080   0.106E+00    0.417E-02
DAV:   2    -0.223873478627E+03   -0.84360E-04   -0.12360E-03 16160   0.198E-01    0.435E-02
DAV:   3    -0.223873470251E+03    0.83760E-05   -0.36835E-04 15960   0.184E-01    0.266E-02
DAV:   4    -0.223873469795E+03    0.45649E-06   -0.29062E-04 14760   0.163E-01    0.237E-02
DAV:   5    -0.223873449798E+03    0.19997E-04   -0.11558E-04 15320   0.106E-01    0.587E-03
DAV:   6    -0.223873452542E+03   -0.27437E-05   -0.35753E-05 13560   0.214E-02
   5 F= -.22387345E+03 E0= -.22387263E+03  d E =0.243470E-03
 BRION: g(F)=  0.155E-03 g(S)=  0.000E+00 retain N=  1 mean eig= 2.97
 eig:   2.970
 bond charge predicted
       N       E                     dE             d eps       ncg     rms          rms(c)
DAV:   1    -0.223873443561E+03    0.62368E-05   -0.26702E-02 14080   0.261E-01    0.106E-02
DAV:   2    -0.223873452509E+03   -0.89477E-05   -0.11585E-04 15120   0.541E-02    0.113E-02
DAV:   3    -0.223873452114E+03    0.39536E-06   -0.25272E-05 10600   0.469E-02
   6 F= -.22387345E+03 E0= -.22387262E+03  d E =0.428205E-06
 BRION: g(F)=  0.122E-03 g(S)=  0.000E+00 retain N=  1 mean eig= 2.21
 eig:   2.207
 bond charge predicted
       N       E                     dE             d eps       ncg     rms          rms(c)
DAV:   1    -0.223873569512E+03   -0.11700E-03   -0.27656E-02 14080   0.267E-01    0.150E-02
DAV:   2    -0.223873601715E+03   -0.32203E-04   -0.33552E-04 15800   0.181E-01    0.269E-02
DAV:   3    -0.223873567470E+03    0.34245E-04   -0.22577E-04 13760   0.149E-01    0.749E-03
DAV:   4    -0.223873566216E+03    0.12539E-05   -0.20592E-05 10120   0.278E-02
   7 F= -.22387357E+03 E0= -.22387274E+03  d E =-.114102E-03
 BRION: g(F)=  0.106E-03 g(S)=  0.000E+00
 BRIONS problems: POTIM should be increased
 retain N=  1 mean eig=10.47
 eig:  10.465
 bond charge predicted
       N       E                     dE             d eps       ncg     rms          rms(c)
DAV:   1    -0.223873857377E+03   -0.28991E-03   -0.23780E+00 14080   0.245E+00    0.106E-01
DAV:   2    -0.223874191870E+03   -0.33449E-03   -0.58959E-03 18280   0.478E-01    0.104E-01
DAV:   3    -0.223874169591E+03    0.22279E-04   -0.31813E-03 15880   0.536E-01    0.714E-02
DAV:   4    -0.223874078679E+03    0.90912E-04   -0.16330E-03 16400   0.399E-01    0.529E-02
DAV:   5    -0.223873966583E+03    0.11210E-03   -0.46918E-04 20280   0.209E-01    0.113E-02
DAV:   6    -0.223873975293E+03   -0.87101E-05   -0.13688E-04 15280   0.540E-02    0.107E-02
DAV:   7    -0.223873975875E+03   -0.58193E-06   -0.25877E-05 11560   0.311E-02
   8 F= -.22387398E+03 E0= -.22387317E+03  d E =-.409659E-03
 BRION: g(F)=  0.244E-03 g(S)=  0.000E+00 retain N=  1 mean eig= 3.61
 eig:   3.609
 bond charge predicted
       N       E                     dE             d eps       ncg     rms          rms(c)
DAV:   1    -0.223873843975E+03    0.13132E-03   -0.94462E-01 14080   0.154E+00    0.681E-02
DAV:   2    -0.223874029587E+03   -0.18561E-03   -0.26295E-03 18160   0.334E-01    0.701E-02
DAV:   3    -0.223874011396E+03    0.18190E-04   -0.13760E-03 15880   0.353E-01    0.449E-02
DAV:   4    -0.223873985240E+03    0.26156E-04   -0.61434E-04 15880   0.244E-01    0.330E-02
DAV:   5    -0.223873960536E+03    0.24704E-04   -0.17868E-04 17320   0.129E-01    0.842E-03
DAV:   6    -0.223873966120E+03   -0.55833E-05   -0.63071E-05 15400   0.378E-02
   9 F= -.22387397E+03 E0= -.22387315E+03  d E =0.975531E-05
 BRION: g(F)=  0.862E-04 g(S)=  0.000E+00 retain N=  1 mean eig= 2.69
 eig:   2.695
 reached required accuracy - stopping structural energy minimisation
 writing wavefunctions
