 running on   20 total cores
 distrk:  each k-point on   20 cores,    1 groups
 distr:  one band on    1 cores,   20 groups
 using from now: INCAR     
 vasp.5.4.1 05Feb16 (build Sep 02 2018 21:45:25) complex                        
  
 POSCAR found type information on POSCAR  Cu
 POSCAR found :  1 types and      36 ions
 scaLAPACK will be used

 ----------------------------------------------------------------------------- 
|                                                                             |
|           W    W    AA    RRRRR   N    N  II  N    N   GGGG   !!!           |
|           W    W   A  A   R    R  NN   N  II  NN   N  G    G  !!!           |
|           W    W  A    A  R    R  N N  N  II  N N  N  G       !!!           |
|           W WW W  AAAAAA  RRRRR   N  N N  II  N  N N  G  GGG   !            |
|           WW  WW  A    A  R   R   N   NN  II  N   NN  G    G                |
|           W    W  A    A  R    R  N    N  II  N    N   GGGG   !!!           |
|                                                                             |
|      For optimal performance we recommend to set                            |
|        NCORE= 4 - approx SQRT( number of cores)                             |
|      NCORE specifies how many cores store one orbital (NPAR=cpu/NCORE).     |
|      This setting can  greatly improve the performance of VASP for DFT.     |
|      The default, NPAR=number of cores might be grossly inefficient         |
|      on modern multi-core architectures or massively parallel machines.     |
|      Do your own testing !!!!                                               |
|      Unfortunately you need to use the default for GW and RPA calculations. |
|      (for HF NCORE is supported but not extensively tested yet)             |
|                                                                             |
 ----------------------------------------------------------------------------- 

 LDA part: xc-table for Ceperly-Alder, standard interpolation
 POSCAR, INCAR and KPOINTS ok, starting setup
 WARNING: small aliasing (wrap around) errors must be expected
 FFT: planning ...
 WAVECAR not read
 entering main loop
       N       E                     dE             d eps       ncg     rms          rms(c)
DAV:   1     0.275860955641E+04    0.27586E+04   -0.17242E+05  4800   0.170E+03
DAV:   2     0.838141599547E+02   -0.26748E+04   -0.25638E+04  4800   0.382E+02
DAV:   3    -0.143807218969E+03   -0.22762E+03   -0.22036E+03  5220   0.149E+02
DAV:   4    -0.149110523048E+03   -0.53033E+01   -0.52713E+01  5200   0.254E+01
DAV:   5    -0.149158727387E+03   -0.48204E-01   -0.48199E-01  5300   0.170E+00    0.381E+01
DAV:   6    -0.135657268657E+03    0.13501E+02   -0.30256E+02  5340   0.892E+01    0.191E+01
DAV:   7    -0.123335073402E+03    0.12322E+02   -0.53152E+01  5220   0.494E+01    0.471E+00
DAV:   8    -0.123542874963E+03   -0.20780E+00   -0.96681E+00  5340   0.300E+01    0.330E+00
DAV:   9    -0.123536137807E+03    0.67372E-02   -0.19658E+00  5800   0.142E+01    0.359E+00
DAV:  10    -0.123425743269E+03    0.11039E+00   -0.10134E+00  5600   0.115E+01    0.296E+00
DAV:  11    -0.123255468849E+03    0.17027E+00   -0.65838E-01  5160   0.451E+00    0.376E-01
DAV:  12    -0.123265081539E+03   -0.96127E-02   -0.97696E-02  5780   0.293E+00    0.730E-01
DAV:  13    -0.123256227572E+03    0.88540E-02   -0.88586E-02  5120   0.336E+00    0.722E-01
DAV:  14    -0.123242484080E+03    0.13743E-01   -0.32097E-02  5240   0.989E-01    0.313E-01
DAV:  15    -0.123238706815E+03    0.37773E-02   -0.35050E-02  5800   0.232E+00    0.233E-01
DAV:  16    -0.123236926087E+03    0.17807E-02   -0.14241E-02  4900   0.950E-01    0.236E-01
DAV:  17    -0.123236903525E+03    0.22563E-04   -0.99994E-03  6820   0.147E+00    0.112E-01
DAV:  18    -0.123237411328E+03   -0.50780E-03   -0.76481E-03  5200   0.124E+00    0.412E-02
DAV:  19    -0.123240362881E+03   -0.29516E-02   -0.25627E-03  4840   0.566E-01    0.566E-02
DAV:  20    -0.123241502741E+03   -0.11399E-02   -0.12067E-03  4860   0.479E-01    0.258E-02
DAV:  21    -0.123242302369E+03   -0.79963E-03   -0.45536E-04  4920   0.823E-02    0.170E-02
DAV:  22    -0.123242570619E+03   -0.26825E-03   -0.16941E-04  5300   0.188E-01    0.194E-02
DAV:  23    -0.123242594317E+03   -0.23698E-04   -0.72357E-05  4880   0.108E-01    0.101E-02
DAV:  24    -0.123242592024E+03    0.22924E-05   -0.29354E-05  4020   0.591E-02
   1 F= -.12324259E+03 E0= -.12324250E+03  d E =-.123243E+03
 curvature:   0.00 expect dE= 0.000E+00 dE for cont linesearch  0.000E+00
 trial: gam= 0.00000 g(F)=  0.202E-05 g(S)=  0.000E+00 ort = 0.000E+00 (trialstep = 0.100E+01)
 search vector abs. value=  0.202E-05
 reached required accuracy - stopping structural energy minimisation
