 running on   25 total cores
 distrk:  each k-point on   25 cores,    1 groups
 distr:  one band on    1 cores,   25 groups
 using from now: INCAR     
 vasp.5.4.1 24Jun15 (build Oct 26 2018 17:15:27) complex                        
  
 POSCAR found type information on POSCAR  Pt O 
 POSCAR found :  2 types and      17 ions
 scaLAPACK will be used

 ----------------------------------------------------------------------------- 
|                                                                             |
|           W    W    AA    RRRRR   N    N  II  N    N   GGGG   !!!           |
|           W    W   A  A   R    R  NN   N  II  NN   N  G    G  !!!           |
|           W    W  A    A  R    R  N N  N  II  N N  N  G       !!!           |
|           W WW W  AAAAAA  RRRRR   N  N N  II  N  N N  G  GGG   !            |
|           WW  WW  A    A  R   R   N   NN  II  N   NN  G    G                |
|           W    W  A    A  R    R  N    N  II  N    N   GGGG   !!!           |
|                                                                             |
|      For optimal performance we recommend to set                            |
|        NCORE= 4 - approx SQRT( number of cores)                             |
|      NCORE specifies how many cores store one orbital (NPAR=cpu/NCORE).     |
|      This setting can  greatly improve the performance of VASP for DFT.     |
|      The default, NPAR=number of cores might be grossly inefficient         |
|      on modern multi-core architectures or massively parallel machines.     |
|      Do your own testing !!!!                                               |
|      Unfortunately you need to use the default for GW and RPA calculations. |
|      (for HF NCORE is supported but not extensively tested yet)             |
|                                                                             |
 ----------------------------------------------------------------------------- 

 LDA part: xc-table for Ceperly-Alder, standard interpolation
 POSCAR, INCAR and KPOINTS ok, starting setup
 WARNING: small aliasing (wrap around) errors must be expected
 FFT: planning ...
 WAVECAR not read
 entering main loop
       N       E                     dE             d eps       ncg     rms          rms(c)
DAV:   1     0.173627472874E+04    0.17363E+04   -0.69377E+04  6800   0.143E+03
DAV:   2     0.929246569323E+02   -0.16434E+04   -0.15445E+04  6800   0.481E+02
DAV:   3    -0.962153005473E+02   -0.18914E+03   -0.18088E+03 10075   0.129E+02
DAV:   4    -0.105121967487E+03   -0.89067E+01   -0.87108E+01  7525   0.390E+01
DAV:   5    -0.105438613001E+03   -0.31665E+00   -0.31481E+00 10050   0.533E+00    0.192E+01
RMM:   6    -0.131916212090E+03   -0.26478E+02   -0.26024E+01  6847   0.230E+01    0.361E+01
RMM:   7    -0.139302302004E+03   -0.73861E+01   -0.33591E+01  7426   0.158E+01    0.337E+01
RMM:   8    -0.101882804751E+03    0.37419E+02   -0.10874E+01  7106   0.106E+01    0.160E+01
RMM:   9    -0.971710374409E+02    0.47118E+01   -0.42179E+00  7079   0.670E+00    0.794E+00
RMM:  10    -0.965232469117E+02    0.64779E+00   -0.11293E+00  7005   0.375E+00    0.523E+00
RMM:  11    -0.962292161081E+02    0.29403E+00   -0.20674E-01  6932   0.171E+00    0.316E+00
RMM:  12    -0.961550677419E+02    0.74148E-01   -0.12950E-01  7006   0.129E+00    0.211E+00
RMM:  13    -0.961098284989E+02    0.45239E-01   -0.10387E-01  6934   0.126E+00    0.124E+00
RMM:  14    -0.961050989319E+02    0.47296E-02   -0.43793E-02  6904   0.808E-01    0.116E+00
RMM:  15    -0.960979719707E+02    0.71270E-02   -0.14366E-02  7066   0.444E-01    0.745E-01
RMM:  16    -0.960914437326E+02    0.65282E-02   -0.32033E-03  6931   0.221E-01    0.291E-01
RMM:  17    -0.960910320665E+02    0.41167E-03   -0.22241E-03  6932   0.184E-01    0.265E-01
RMM:  18    -0.960906916653E+02    0.34040E-03   -0.74888E-04  6982   0.103E-01    0.122E-01
RMM:  19    -0.960908977224E+02   -0.20606E-03   -0.46284E-04  7407   0.658E-02    0.208E-01
RMM:  20    -0.960907681417E+02    0.12958E-03   -0.13975E-04  6008   0.383E-02    0.146E-01
RMM:  21    -0.960907395075E+02    0.28634E-04   -0.34077E-04  6533   0.487E-02    0.498E-02
RMM:  22    -0.960908768395E+02   -0.13733E-03   -0.70967E-05  5270   0.225E-02    0.427E-02
RMM:  23    -0.960911713191E+02   -0.29448E-03   -0.75515E-05  5311   0.252E-02    0.324E-02
RMM:  24    -0.960914010888E+02   -0.22977E-03   -0.44487E-05  4642   0.184E-02    0.330E-02
RMM:  25    -0.960915982899E+02   -0.19720E-03   -0.60864E-05  4905   0.189E-02    0.396E-02
RMM:  26    -0.960916350377E+02   -0.36748E-04   -0.36507E-05  4485   0.153E-02    0.104E-02
RMM:  27    -0.960916374727E+02   -0.24350E-05   -0.75597E-06  3813   0.101E-02
   1 F= -.96091637E+02 E0= -.95992260E+02  d E =-.960916E+02
 curvature:   0.00 expect dE= 0.000E+00 dE for cont linesearch  0.000E+00
 trial: gam= 0.00000 g(F)=  0.165E+00 g(S)=  0.000E+00 ort = 0.000E+00 (trialstep = 0.100E+01)
 search vector abs. value=  0.165E+00
 bond charge predicted
       N       E                     dE             d eps       ncg     rms          rms(c)
DAV:   1    -0.962408179775E+02   -0.14918E+00   -0.87114E+00  7025   0.943E+00    0.448E-01
RMM:   2    -0.964039551865E+02   -0.16314E+00   -0.17814E-01  6903   0.132E+00    0.371E+00
RMM:   3    -0.962621169785E+02    0.14184E+00   -0.20630E-02  7134   0.493E-01    0.716E-01
RMM:   4    -0.962559729036E+02    0.61441E-02   -0.62404E-03  7380   0.263E-01    0.357E-01
RMM:   5    -0.962549567050E+02    0.10162E-02   -0.12164E-03  6873   0.119E-01    0.332E-01
RMM:   6    -0.962546472768E+02    0.30943E-03   -0.13520E-03  6847   0.131E-01    0.271E-01
RMM:   7    -0.962537414958E+02    0.90578E-03   -0.12695E-03  6983   0.116E-01    0.788E-02
RMM:   8    -0.962536436832E+02    0.97813E-04   -0.19778E-04  6817   0.604E-02    0.408E-02
RMM:   9    -0.962536386640E+02    0.50192E-05   -0.41769E-05  4935   0.197E-02
   2 F= -.96253639E+02 E0= -.96155265E+02  d E =-.162001E+00
 ZBRENT: can't locate minimum, use default step
 trial-energy change:   -0.162001  1 .order   -0.162933   -0.164658   -0.161208
 step:   4.0000(harm= 47.7286)  dis= 0.04250  next Energy=  -100.021080 (dE=-0.393E+01)
 bond charge predicted
       N       E                     dE             d eps       ncg     rms          rms(c)
DAV:   1    -0.965683704348E+02   -0.31473E+00   -0.78572E+01  6800   0.285E+01    0.148E+00
RMM:   2    -0.982739150802E+02   -0.17055E+01   -0.20291E+00  6913   0.506E+00    0.107E+01
RMM:   3    -0.968229656814E+02    0.14509E+01   -0.23927E-01  7314   0.161E+00    0.272E+00
RMM:   4    -0.967119787078E+02    0.11099E+00   -0.64881E-02  7084   0.915E-01    0.777E-01
RMM:   5    -0.967135249666E+02   -0.15463E-02   -0.15082E-02  7059   0.403E-01    0.112E+00
RMM:   6    -0.967060134856E+02    0.75115E-02   -0.12377E-02  6850   0.414E-01    0.778E-01
RMM:   7    -0.967034960272E+02    0.25175E-02   -0.15189E-02  7092   0.406E-01    0.550E-01
RMM:   8    -0.967001558027E+02    0.33402E-02   -0.34637E-03  6995   0.219E-01    0.374E-01
RMM:   9    -0.966986319199E+02    0.15239E-02   -0.35997E-04  7238   0.666E-02    0.168E-01
RMM:  10    -0.966982374958E+02    0.39442E-03   -0.38918E-04  6838   0.736E-02    0.102E-01
RMM:  11    -0.966982772161E+02   -0.39720E-04   -0.34414E-04  6861   0.696E-02    0.145E-01
RMM:  12    -0.966981776742E+02    0.99542E-04   -0.85285E-05  6361   0.322E-02    0.127E-01
RMM:  13    -0.966980048825E+02    0.17279E-03   -0.25096E-05  4166   0.169E-02    0.582E-02
RMM:  14    -0.966980452432E+02   -0.40361E-04   -0.20258E-05  3989   0.186E-02    0.410E-02
RMM:  15    -0.966982152455E+02   -0.17000E-03   -0.20258E-05  4053   0.164E-02    0.527E-02
RMM:  16    -0.966983995025E+02   -0.18426E-03   -0.29297E-05  4446   0.133E-02    0.365E-02
RMM:  17    -0.966985367232E+02   -0.13722E-03   -0.23225E-05  4176   0.118E-02    0.257E-02
RMM:  18    -0.966986464093E+02   -0.10969E-03   -0.35345E-05  4583   0.130E-02    0.155E-02
RMM:  19    -0.966986651831E+02   -0.18774E-04   -0.83096E-06  3775   0.949E-03    0.110E-02
RMM:  20    -0.966986749419E+02   -0.97588E-05   -0.61966E-06  3597   0.724E-03
   3 F= -.96698675E+02 E0= -.96603444E+02  d E =-.607037E+00
 curvature:  -2.97 expect dE=-0.334E+00 dE for cont linesearch -0.321E+00
 ZBRENT: increasing intervall
 opt :  10.0000  next Energy=   -97.332728 (dE=-0.124E+01)
 bond charge predicted
       N       E                     dE             d eps       ncg     rms          rms(c)
DAV:   1    -0.965869643760E+02    0.11170E+00   -0.31432E+02  6800   0.577E+01    0.327E+00
RMM:   2    -0.103594653264E+03   -0.70077E+01   -0.11047E+01  6918   0.121E+01    0.169E+01
RMM:   3    -0.978877626621E+02    0.57069E+01   -0.13419E+00  7455   0.364E+00    0.620E+00
RMM:   4    -0.972914164597E+02    0.59635E+00   -0.31546E-01  6892   0.216E+00    0.154E+00
RMM:   5    -0.972977052619E+02   -0.62888E-02   -0.71194E-02  7270   0.861E-01    0.223E+00
RMM:   6    -0.972543383927E+02    0.43367E-01   -0.59616E-02  6886   0.970E-01    0.127E+00
RMM:   7    -0.972613137261E+02   -0.69753E-02   -0.76072E-02  6900   0.983E-01    0.129E+00
RMM:   8    -0.972472705689E+02    0.14043E-01   -0.25919E-02  7103   0.569E-01    0.105E+00
RMM:   9    -0.972355813654E+02    0.11689E-01   -0.28098E-03  7138   0.192E-01    0.556E-01
RMM:  10    -0.972309755455E+02    0.46058E-02   -0.26634E-03  6845   0.192E-01    0.185E-01
RMM:  11    -0.972313746060E+02   -0.39906E-03   -0.23187E-03  6889   0.184E-01    0.303E-01
RMM:  12    -0.972302867557E+02    0.10879E-02   -0.49260E-04  7028   0.802E-02    0.188E-01
RMM:  13    -0.972297119753E+02    0.57478E-03   -0.16604E-04  7228   0.396E-02    0.103E-01
RMM:  14    -0.972294516494E+02    0.26033E-03   -0.56517E-05  5341   0.229E-02    0.606E-02
RMM:  15    -0.972293710332E+02    0.80616E-04   -0.60776E-05  5193   0.246E-02    0.782E-02
RMM:  16    -0.972293763491E+02   -0.53158E-05   -0.15788E-05  3912   0.161E-02
   4 F= -.97229376E+02 E0= -.97142040E+02  d E =-.113774E+01
 curvature:  -5.86 expect dE=-0.294E+00 dE for cont linesearch -0.206E-01
 ZBRENT: extrapolating
 opt :  11.3194  next Energy=   -97.245244 (dE=-0.115E+01)
 bond charge predicted
       N       E                     dE             d eps       ncg     rms          rms(c)
DAV:   1    -0.972100490152E+02    0.19322E-01   -0.15506E+01  6800   0.127E+01    0.669E-01
RMM:   2    -0.974710677007E+02   -0.26102E+00   -0.38183E-01  6883   0.211E+00    0.407E+00
RMM:   3    -0.972547840715E+02    0.21628E+00   -0.40479E-02  7282   0.696E-01    0.984E-01
RMM:   4    -0.972426114514E+02    0.12173E-01   -0.13813E-02  6941   0.441E-01    0.554E-01
RMM:   5    -0.972391944172E+02    0.34170E-02   -0.35676E-03  6875   0.217E-01    0.383E-01
RMM:   6    -0.972385397664E+02    0.65465E-03   -0.28309E-03  6836   0.190E-01    0.332E-01
RMM:   7    -0.972371816463E+02    0.13581E-02   -0.20600E-03  6843   0.166E-01    0.160E-01
RMM:   8    -0.972367304595E+02    0.45119E-03   -0.60179E-04  6861   0.957E-02    0.449E-02
RMM:   9    -0.972367609881E+02   -0.30529E-04   -0.14220E-04  6917   0.422E-02    0.492E-02
RMM:  10    -0.972367886845E+02   -0.27696E-04   -0.56292E-05  5603   0.270E-02    0.371E-02
RMM:  11    -0.972368584708E+02   -0.69786E-04   -0.26574E-05  4057   0.234E-02    0.398E-02
RMM:  12    -0.972369108566E+02   -0.52386E-04   -0.11657E-05  3768   0.191E-02    0.331E-02
RMM:  13    -0.972369712583E+02   -0.60402E-04   -0.70543E-06  3777   0.876E-03    0.283E-02
RMM:  14    -0.972370422795E+02   -0.71021E-04   -0.81144E-06  3840   0.937E-03    0.225E-02
RMM:  15    -0.972370986071E+02   -0.56328E-04   -0.79832E-06  3861   0.872E-03    0.182E-02
RMM:  16    -0.972371702902E+02   -0.71683E-04   -0.19596E-05  4140   0.970E-03    0.118E-02
RMM:  17    -0.972371879574E+02   -0.17667E-04   -0.68133E-06  3714   0.775E-03    0.819E-03
RMM:  18    -0.972371930713E+02   -0.51139E-05   -0.39044E-06  3410   0.658E-03
   5 F= -.97237193E+02 E0= -.97152061E+02  d E =-.114556E+01
 curvature:  -4.52 expect dE=-0.323E+00 dE for cont linesearch -0.642E-02
 ZBRENT: bracketing found
 ZBRENT: interpolating
 opt :  10.8063  next Energy=   -97.241119 (dE=-0.115E+01)
 bond charge predicted
       N       E                     dE             d eps       ncg     rms          rms(c)
DAV:   1    -0.972370347336E+02    0.15322E-03   -0.23388E+00  6950   0.479E+00    0.262E-01
RMM:   2    -0.972863928607E+02   -0.49358E-01   -0.54615E-02  6963   0.760E-01    0.171E+00
RMM:   3    -0.972427213350E+02    0.43672E-01   -0.65945E-03  7051   0.302E-01    0.327E-01
RMM:   4    -0.972417377482E+02    0.98359E-03   -0.23736E-03  7048   0.181E-01    0.225E-01
RMM:   5    -0.972411106533E+02    0.62709E-03   -0.68754E-04  6884   0.952E-02    0.134E-01
RMM:   6    -0.972409482672E+02    0.16239E-03   -0.38041E-04  6831   0.712E-02    0.984E-02
RMM:   7    -0.972409091938E+02    0.39073E-04   -0.31177E-04  6878   0.639E-02    0.778E-02
RMM:   8    -0.972408203426E+02    0.88851E-04   -0.98133E-05  6702   0.384E-02    0.409E-02
RMM:   9    -0.972408033652E+02    0.16977E-04   -0.13903E-05  3762   0.156E-02    0.227E-02
RMM:  10    -0.972408041256E+02   -0.76042E-06   -0.10525E-05  3644   0.170E-02
   6 F= -.97240804E+02 E0= -.97154798E+02  d E =-.114917E+01
 curvature:  -2.76 expect dE=-0.166E+00 dE for cont linesearch -0.959E-05
 trial: gam= 0.36017 g(F)=  0.601E-01 g(S)=  0.000E+00 ort = 0.756E-03 (trialstep = 0.296E+01)
 search vector abs. value=  0.820E-01
 bond charge predicted
       N       E                     dE             d eps       ncg     rms          rms(c)
DAV:   1    -0.973219261992E+02   -0.81123E-01   -0.38937E+01  6800   0.193E+01    0.947E-01
RMM:   2    -0.974473333782E+02   -0.12541E+00   -0.76420E-01  6846   0.362E+00    0.206E+00
RMM:   3    -0.974373254549E+02    0.10008E-01   -0.95283E-02  8833   0.959E-01    0.167E+00
RMM:   4    -0.974031571092E+02    0.34168E-01   -0.25522E-02  6948   0.591E-01    0.951E-01
RMM:   5    -0.973905591462E+02    0.12598E-01   -0.73889E-03  6945   0.295E-01    0.457E-01
RMM:   6    -0.973894799148E+02    0.10792E-02   -0.58548E-03  7108   0.258E-01    0.334E-01
RMM:   7    -0.973888850843E+02    0.59483E-03   -0.54168E-03  6899   0.249E-01    0.254E-01
RMM:   8    -0.973879626567E+02    0.92243E-03   -0.11954E-03  7037   0.116E-01    0.126E-01
RMM:   9    -0.973877428222E+02    0.21983E-03   -0.33068E-04  6821   0.649E-02    0.631E-02
RMM:  10    -0.973876657320E+02    0.77090E-04   -0.13667E-04  6709   0.388E-02    0.176E-02
RMM:  11    -0.973876729550E+02   -0.72231E-05   -0.39673E-05  4649   0.240E-02
   7 F= -.97387673E+02 E0= -.97304119E+02  d E =-.146869E+00
 trial-energy change:   -0.146869  1 .order   -0.146126   -0.178664   -0.113588
 step:   7.3765(harm=  8.1300)  dis= 0.06728  next Energy=   -97.474815 (dE=-0.234E+00)
 bond charge predicted
       N       E                     dE             d eps       ncg     rms          rms(c)
DAV:   1    -0.973291365981E+02    0.58529E-01   -0.86657E+01  6800   0.286E+01    0.148E+00
RMM:   2    -0.976624764524E+02   -0.33334E+00   -0.18668E+00  6833   0.599E+00    0.349E+00
RMM:   3    -0.976130163929E+02    0.49460E-01   -0.25759E-01  8642   0.151E+00    0.265E+00
RMM:   4    -0.975224929960E+02    0.90523E-01   -0.66630E-02  6945   0.101E+00    0.147E+00
RMM:   5    -0.974916966402E+02    0.30796E-01   -0.19658E-02  6943   0.487E-01    0.717E-01
RMM:   6    -0.974894254145E+02    0.22712E-02   -0.15126E-02  7074   0.428E-01    0.567E-01
RMM:   7    -0.974865015208E+02    0.29239E-02   -0.12558E-02  6906   0.382E-01    0.344E-01
RMM:   8    -0.974848254777E+02    0.16760E-02   -0.25076E-03  7559   0.169E-01    0.183E-01
RMM:   9    -0.974846243450E+02    0.20113E-03   -0.76016E-04  6830   0.105E-01    0.144E-01
RMM:  10    -0.974843146166E+02    0.30973E-03   -0.38860E-04  6809   0.706E-02    0.468E-02
RMM:  11    -0.974843069013E+02    0.77153E-05   -0.15497E-04  6821   0.439E-02    0.284E-02
RMM:  12    -0.974843205318E+02   -0.13630E-04   -0.34019E-05  4432   0.205E-02    0.229E-02
RMM:  13    -0.974843457031E+02   -0.25171E-04   -0.13783E-05  3788   0.201E-02    0.162E-02
RMM:  14    -0.974843653275E+02   -0.19624E-04   -0.67543E-06  3733   0.123E-02    0.121E-02
RMM:  15    -0.974843876584E+02   -0.22331E-04   -0.52010E-06  3741   0.803E-03    0.132E-02
RMM:  16    -0.974843966257E+02   -0.89673E-05   -0.24678E-06  3630   0.662E-03
   8 F= -.97484397E+02 E0= -.97402527E+02  d E =-.243593E+00
 curvature:  -5.41 expect dE=-0.311E-01 dE for cont linesearch -0.142E-02
 ZBRENT: extrapolating
 opt :   7.9831  next Energy=   -97.485802 (dE=-0.245E+00)
 bond charge predicted
       N       E                     dE             d eps       ncg     rms          rms(c)
DAV:   1    -0.974839258112E+02    0.46185E-03   -0.16336E+00  6950   0.388E+00    0.205E-01
RMM:   2    -0.974873348242E+02   -0.34090E-02   -0.28229E-02  6839   0.611E-01    0.272E-01
RMM:   3    -0.974917663041E+02   -0.44315E-02   -0.34487E-03  7908   0.220E-01    0.593E-01
RMM:   4    -0.974870551874E+02    0.47111E-02   -0.13943E-03  7156   0.120E-01    0.217E-01
RMM:   5    -0.974863248200E+02    0.73037E-03   -0.37916E-04  6968   0.634E-02    0.838E-02
RMM:   6    -0.974862679941E+02    0.56826E-04   -0.20227E-04  6939   0.485E-02    0.577E-02
RMM:   7    -0.974862649429E+02    0.30513E-05   -0.18133E-04  6861   0.460E-02    0.509E-02
RMM:   8    -0.974862312918E+02    0.33651E-04   -0.59707E-05  5752   0.278E-02    0.220E-02
RMM:   9    -0.974862228496E+02    0.84422E-05   -0.13912E-05  3647   0.184E-02
   9 F= -.97486223E+02 E0= -.97404413E+02  d E =-.245419E+00
 curvature:  -5.37 expect dE=-0.291E-01 dE for cont linesearch -0.632E-04
 trial: gam=-0.00322 g(F)=  0.542E-02 g(S)=  0.000E+00 ort = 0.983E-03 (trialstep = 0.397E+01)
 search vector abs. value=  0.541E-02
 bond charge predicted
       N       E                     dE             d eps       ncg     rms          rms(c)
DAV:   1    -0.974968546411E+02   -0.10623E-01   -0.48623E+00  6800   0.600E+00    0.222E-01
RMM:   2    -0.975195394114E+02   -0.22685E-01   -0.69301E-02  6822   0.107E+00    0.105E+00
RMM:   3    -0.975043732162E+02    0.15166E-01   -0.10468E-02  9077   0.355E-01    0.281E-01
RMM:   4    -0.975033606165E+02    0.10126E-02   -0.13086E-03  7308   0.124E-01    0.151E-01
RMM:   5    -0.975031896670E+02    0.17095E-03   -0.42132E-04  7049   0.726E-02    0.143E-01
RMM:   6    -0.975029704220E+02    0.21924E-03   -0.39584E-04  6925   0.654E-02    0.989E-02
RMM:   7    -0.975029522188E+02    0.18203E-04   -0.66068E-04  6925   0.857E-02    0.955E-02
RMM:   8    -0.975028348458E+02    0.11737E-03   -0.34479E-04  7485   0.604E-02    0.300E-02
RMM:   9    -0.975028234924E+02    0.11353E-04   -0.32039E-05  4240   0.248E-02    0.210E-02
RMM:  10    -0.975028094159E+02    0.14076E-04   -0.26877E-05  3825   0.245E-02    0.991E-03
RMM:  11    -0.975028082054E+02    0.12105E-05   -0.10268E-05  3552   0.140E-02
  10 F= -.97502808E+02 E0= -.97420708E+02  d E =-.165854E-01
 trial-energy change:   -0.016585  1 .order   -0.016545   -0.021469   -0.011621
 step:   8.4120(harm=  8.6453)  dis= 0.02843  next Energy=   -97.509380 (dE=-0.232E-01)
 bond charge predicted
       N       E                     dE             d eps       ncg     rms          rms(c)
DAV:   1    -0.975023010393E+02    0.50838E-03   -0.61114E+00  6800   0.673E+00    0.249E-01
RMM:   2    -0.975272091710E+02   -0.24908E-01   -0.87755E-02  6821   0.122E+00    0.107E+00
RMM:   3    -0.975120993191E+02    0.15110E-01   -0.13525E-02  9291   0.390E-01    0.339E-01
RMM:   4    -0.975106276102E+02    0.14717E-02   -0.16088E-03  7187   0.139E-01    0.173E-01
RMM:   5    -0.975103950257E+02    0.23258E-03   -0.52393E-04  7099   0.802E-02    0.163E-01
RMM:   6    -0.975100829619E+02    0.31206E-03   -0.48054E-04  6912   0.719E-02    0.106E-01
RMM:   7    -0.975101039733E+02   -0.21011E-04   -0.93906E-04  6947   0.103E-01    0.111E-01
RMM:   8    -0.975099348100E+02    0.16916E-03   -0.41796E-04  7439   0.676E-02    0.361E-02
RMM:   9    -0.975099203451E+02    0.14465E-04   -0.44286E-05  4836   0.277E-02    0.252E-02
RMM:  10    -0.975099031003E+02    0.17245E-04   -0.34453E-05  4207   0.253E-02    0.135E-02
RMM:  11    -0.975099013659E+02    0.17343E-05   -0.11842E-05  3559   0.153E-02
  11 F= -.97509901E+02 E0= -.97427397E+02  d E =-.236785E-01
 curvature:  -4.31 expect dE=-0.144E-01 dE for cont linesearch -0.168E-03
 trial: gam= 0.53240 g(F)=  0.334E-02 g(S)=  0.000E+00 ort = 0.459E-03 (trialstep = 0.485E+01)
 search vector abs. value=  0.537E-02
 bond charge predicted
       N       E                     dE             d eps       ncg     rms          rms(c)
DAV:   1    -0.975101999054E+02   -0.29681E-03   -0.71371E+00  6800   0.800E+00    0.325E-01
RMM:   2    -0.975222465872E+02   -0.12047E-01   -0.12322E-01  6840   0.141E+00    0.237E-01
RMM:   3    -0.975320474514E+02   -0.98009E-02   -0.13554E-02  8590   0.434E-01    0.836E-01
RMM:   4    -0.975224262667E+02    0.96212E-02   -0.21801E-03  7598   0.139E-01    0.227E-01
RMM:   5    -0.975216981011E+02    0.72817E-03   -0.74249E-04  6839   0.106E-01    0.168E-01
RMM:   6    -0.975214653369E+02    0.23276E-03   -0.39409E-04  7489   0.611E-02    0.127E-01
RMM:   7    -0.975212610849E+02    0.20425E-03   -0.12174E-03  6987   0.109E-01    0.749E-02
RMM:   8    -0.975211917130E+02    0.69372E-04   -0.34133E-04  7498   0.649E-02    0.336E-02
RMM:   9    -0.975211716260E+02    0.20087E-04   -0.41346E-05  4800   0.259E-02    0.262E-02
RMM:  10    -0.975211586399E+02    0.12986E-04   -0.22419E-05  3677   0.236E-02    0.146E-02
RMM:  11    -0.975211555599E+02    0.30800E-05   -0.16797E-05  3595   0.173E-02
  12 F= -.97521156E+02 E0= -.97439456E+02  d E =-.112542E-01
 trial-energy change:   -0.011254  1 .order   -0.011743   -0.017419   -0.006067
 step:   7.4495(harm=  7.4495)  dis= 0.02593  next Energy=   -97.523265 (dE=-0.134E-01)
 bond charge predicted
       N       E                     dE             d eps       ncg     rms          rms(c)
DAV:   1    -0.975195740414E+02    0.15846E-02   -0.20384E+00  6800   0.427E+00    0.172E-01
RMM:   2    -0.975229547737E+02   -0.33807E-02   -0.34507E-02  6837   0.717E-01    0.128E-01
RMM:   3    -0.975250840403E+02   -0.21293E-02   -0.32427E-03  7787   0.236E-01    0.396E-01
RMM:   4    -0.975230009607E+02    0.20831E-02   -0.64332E-04  8032   0.730E-02    0.130E-01
RMM:   5    -0.975227806883E+02    0.22027E-03   -0.21786E-04  6848   0.563E-02    0.920E-02
RMM:   6    -0.975226967722E+02    0.83916E-04   -0.10699E-04  6878   0.333E-02    0.632E-02
RMM:   7    -0.975226569829E+02    0.39789E-04   -0.32353E-04  6987   0.554E-02    0.462E-02
RMM:   8    -0.975226355012E+02    0.21482E-04   -0.10569E-04  6785   0.357E-02    0.255E-02
RMM:   9    -0.975226240968E+02    0.11404E-04   -0.13125E-05  3660   0.147E-02    0.123E-02
RMM:  10    -0.975226213474E+02    0.27495E-05   -0.77810E-06  3554   0.154E-02
  13 F= -.97522621E+02 E0= -.97441319E+02  d E =-.127200E-01
 curvature:  -5.57 expect dE=-0.768E-02 dE for cont linesearch -0.130E-04
 trial: gam= 0.49896 g(F)=  0.138E-02 g(S)=  0.000E+00 ort =-0.112E-03 (trialstep = 0.537E+01)
 search vector abs. value=  0.260E-02
 bond charge predicted
       N       E                     dE             d eps       ncg     rms          rms(c)
DAV:   1    -0.975218627165E+02    0.76138E-03   -0.40423E+00  6800   0.613E+00    0.313E-01
RMM:   2    -0.975284737050E+02   -0.66110E-02   -0.71696E-02  6834   0.100E+00    0.187E-01
RMM:   3    -0.975346100863E+02   -0.61364E-02   -0.71283E-03  8717   0.304E-01    0.653E-01
RMM:   4    -0.975285061449E+02    0.61039E-02   -0.13284E-03  7553   0.110E-01    0.157E-01
RMM:   5    -0.975283489699E+02    0.15718E-03   -0.47775E-04  6915   0.849E-02    0.145E-01
RMM:   6    -0.975281015233E+02    0.24745E-03   -0.27053E-04  7007   0.521E-02    0.738E-02
RMM:   7    -0.975281482015E+02   -0.46678E-04   -0.46284E-04  6927   0.743E-02    0.906E-02
RMM:   8    -0.975280251409E+02    0.12306E-03   -0.16770E-04  6815   0.460E-02    0.222E-02
RMM:   9    -0.975280168113E+02    0.83296E-05   -0.20273E-05  3848   0.189E-02
  14 F= -.97528017E+02 E0= -.97446885E+02  d E =-.539546E-02
 trial-energy change:   -0.005395  1 .order   -0.005554   -0.007108   -0.003999
 step:  12.2877(harm= 12.2877)  dis= 0.01261  next Energy=   -97.530748 (dE=-0.813E-02)
 bond charge predicted
       N       E                     dE             d eps       ncg     rms          rms(c)
DAV:   1    -0.975201537636E+02    0.78714E-02   -0.66932E+00  6800   0.789E+00    0.405E-01
RMM:   2    -0.975311390312E+02   -0.10985E-01   -0.12033E-01  6834   0.132E+00    0.234E-01
RMM:   3    -0.975314761268E+02   -0.33710E-03   -0.10662E-02  8964   0.367E-01    0.232E-01
RMM:   4    -0.975332391073E+02   -0.17630E-02   -0.15795E-03  7581   0.130E-01    0.418E-01
RMM:   5    -0.975312790521E+02    0.19601E-02   -0.59378E-04  7219   0.766E-02    0.214E-01
RMM:   6    -0.975306344039E+02    0.64465E-03   -0.46638E-04  7029   0.669E-02    0.957E-02
RMM:   7    -0.975307377566E+02   -0.10335E-03   -0.75420E-04  6875   0.953E-02    0.122E-01
RMM:   8    -0.975305087157E+02    0.22904E-03   -0.31638E-04  6865   0.634E-02    0.280E-02
RMM:   9    -0.975304963893E+02    0.12326E-04   -0.41543E-05  4756   0.263E-02    0.197E-02
RMM:  10    -0.975304878601E+02    0.85293E-05   -0.16154E-05  3769   0.199E-02
  15 F= -.97530488E+02 E0= -.97449576E+02  d E =-.786651E-02
 curvature: -12.09 expect dE=-0.109E-01 dE for cont linesearch -0.193E-03
 ZBRENT: extrapolating
 opt :  14.8914  next Energy=   -97.530753 (dE=-0.813E-02)
 bond charge predicted
       N       E                     dE             d eps       ncg     rms          rms(c)
DAV:   1    -0.975288189856E+02    0.16774E-02   -0.94821E-01  6800   0.297E+00    0.154E-01
RMM:   2    -0.975304304675E+02   -0.16115E-02   -0.17053E-02  6834   0.480E-01    0.979E-02
RMM:   3    -0.975326691655E+02   -0.22387E-02   -0.17766E-03  8340   0.157E-01    0.386E-01
RMM:   4    -0.975304269861E+02    0.22422E-02   -0.40391E-04  7389   0.619E-02    0.817E-02
RMM:   5    -0.975303590634E+02    0.67923E-04   -0.13577E-04  6860   0.458E-02    0.677E-02
RMM:   6    -0.975303009953E+02    0.58068E-04   -0.65679E-05  5849   0.258E-02    0.382E-02
RMM:   7    -0.975303163843E+02   -0.15389E-04   -0.92282E-05  6741   0.360E-02    0.505E-02
RMM:   8    -0.975302829245E+02    0.33460E-04   -0.55929E-05  5718   0.272E-02    0.120E-02
RMM:   9    -0.975302805988E+02    0.23257E-05   -0.83905E-06  3573   0.152E-02
  16 F= -.97530281E+02 E0= -.97449431E+02  d E =-.765925E-02
 curvature: -16.64 expect dE=-0.194E-01 dE for cont linesearch -0.157E-03
 trial: gam= 0.76042 g(F)=  0.117E-02 g(S)=  0.000E+00 ort =-0.157E-03 (trialstep = 0.728E+01)
 search vector abs. value=  0.243E-02
 bond charge predicted
       N       E                     dE             d eps       ncg     rms          rms(c)
DAV:   1    -0.975225467764E+02    0.77361E-02   -0.70069E+00  6800   0.814E+00    0.397E-01
RMM:   2    -0.975469936582E+02   -0.24447E-01   -0.13156E-01  6835   0.139E+00    0.918E-01
RMM:   3    -0.975423089257E+02    0.46847E-02   -0.13019E-02  8750   0.394E-01    0.712E-01
RMM:   4    -0.975347452945E+02    0.75636E-02   -0.36318E-03  6999   0.208E-01    0.248E-01
RMM:   5    -0.975340854580E+02    0.65984E-03   -0.76221E-04  6922   0.102E-01    0.181E-01
RMM:   6    -0.975336861437E+02    0.39931E-03   -0.52295E-04  6928   0.739E-02    0.946E-02
RMM:   7    -0.975336540397E+02    0.32104E-04   -0.80246E-04  6937   0.927E-02    0.752E-02
RMM:   8    -0.975335482301E+02    0.10581E-03   -0.21432E-04  7042   0.507E-02    0.249E-02
RMM:   9    -0.975335382771E+02    0.99529E-05   -0.24977E-05  3978   0.214E-02
  17 F= -.97533538E+02 E0= -.97452541E+02  d E =-.325768E-02
 trial-energy change:   -0.003258  1 .order   -0.004255   -0.007626   -0.000884
 step:   8.2315(harm=  8.2315)  dis= 0.00508  next Energy=   -97.534594 (dE=-0.431E-02)
 bond charge predicted
       N       E                     dE             d eps       ncg     rms          rms(c)
DAV:   1    -0.975333057835E+02    0.24245E-03   -0.11971E-01  6850   0.106E+00    0.578E-02
RMM:   2    -0.975335752799E+02   -0.26950E-03   -0.23468E-03  6840   0.183E-01    0.664E-02
RMM:   3    -0.975340909002E+02   -0.51562E-03   -0.27720E-04  7822   0.598E-02    0.191E-01
RMM:   4    -0.975335511199E+02    0.53978E-03   -0.11165E-04  6823   0.330E-02    0.443E-02
RMM:   5    -0.975335178241E+02    0.33296E-04   -0.20104E-05  3932   0.190E-02    0.242E-02
RMM:   6    -0.975335108666E+02    0.69575E-05   -0.10634E-05  3568   0.172E-02
  18 F= -.97533511E+02 E0= -.97452496E+02  d E =-.323027E-02
 curvature:  -9.56 expect dE=-0.437E-02 dE for cont linesearch -0.144E-04
 trial: gam= 0.06671 g(F)=  0.458E-03 g(S)=  0.000E+00 ort = 0.605E-04 (trialstep = 0.747E+01)
 search vector abs. value=  0.476E-03
 bond charge predicted
       N       E                     dE             d eps       ncg     rms          rms(c)
DAV:   1    -0.975341445039E+02   -0.62668E-03   -0.15340E+00  6800   0.336E+00    0.129E-01
RMM:   2    -0.975366913868E+02   -0.25469E-02   -0.20162E-02  6823   0.586E-01    0.236E-01
RMM:   3    -0.975381489393E+02   -0.14576E-02   -0.26821E-03  9313   0.173E-01    0.367E-01
RMM:   4    -0.975361989837E+02    0.19500E-02   -0.58877E-04  7184   0.815E-02    0.131E-01
RMM:   5    -0.975359534214E+02    0.24556E-03   -0.13897E-04  6977   0.384E-02    0.646E-02
RMM:   6    -0.975359148015E+02    0.38620E-04   -0.78199E-05  6476   0.302E-02    0.567E-02
RMM:   7    -0.975358955354E+02    0.19266E-04   -0.22284E-04  7129   0.454E-02    0.517E-02
RMM:   8    -0.975358621719E+02    0.33364E-04   -0.12981E-04  6846   0.391E-02    0.206E-02
RMM:   9    -0.975358565079E+02    0.56640E-05   -0.13223E-05  3646   0.141E-02
  19 F= -.97535857E+02 E0= -.97454816E+02  d E =-.234564E-02
 trial-energy change:   -0.002346  1 .order   -0.002588   -0.003447   -0.001728
 step:  14.9776(harm= 14.9776)  dis= 0.00922  next Energy=   -97.536968 (dE=-0.346E-02)
 bond charge predicted
       N       E                     dE             d eps       ncg     rms          rms(c)
DAV:   1    -0.975346712009E+02    0.11910E-02   -0.15483E+00  6800   0.338E+00    0.131E-01
RMM:   2    -0.975373128581E+02   -0.26417E-02   -0.20794E-02  6823   0.598E-01    0.241E-01
RMM:   3    -0.975386782003E+02   -0.13653E-02   -0.27911E-03  9429   0.171E-01    0.363E-01
RMM:   4    -0.975367643124E+02    0.19139E-02   -0.58153E-04  7040   0.842E-02    0.124E-01
RMM:   5    -0.975365446258E+02    0.21969E-03   -0.14049E-04  7042   0.380E-02    0.643E-02
RMM:   6    -0.975365049382E+02    0.39688E-04   -0.78945E-05  6546   0.305E-02    0.554E-02
RMM:   7    -0.975364863347E+02    0.18603E-04   -0.21112E-04  7073   0.451E-02    0.495E-02
RMM:   8    -0.975364580776E+02    0.28257E-04   -0.12497E-04  6806   0.374E-02    0.206E-02
RMM:   9    -0.975364520074E+02    0.60703E-05   -0.12675E-05  3649   0.142E-02
  20 F= -.97536452E+02 E0= -.97455319E+02  d E =-.294114E-02
 curvature:  -7.73 expect dE=-0.544E-02 dE for cont linesearch -0.766E-05
 trial: gam= 1.57456 g(F)=  0.704E-03 g(S)=  0.000E+00 ort =-0.217E-04 (trialstep = 0.235E+01)
 search vector abs. value=  0.182E-02
 bond charge predicted
       N       E                     dE             d eps       ncg     rms          rms(c)
DAV:   1    -0.975365950065E+02   -0.13693E-03   -0.56855E-01  6800   0.222E+00    0.955E-02
RMM:   2    -0.975376450042E+02   -0.10500E-02   -0.92017E-03  6832   0.373E-01    0.130E-01
RMM:   3    -0.975383053972E+02   -0.66039E-03   -0.10864E-03  8173   0.127E-01    0.234E-01
RMM:   4    -0.975376722415E+02    0.63316E-03   -0.29203E-04  7331   0.519E-02    0.128E-01
RMM:   5    -0.975374327566E+02    0.23948E-03   -0.10436E-04  6625   0.343E-02    0.500E-02
RMM:   6    -0.975374029728E+02    0.29784E-04   -0.43934E-05  4815   0.240E-02    0.351E-02
RMM:   7    -0.975374095859E+02   -0.66131E-05   -0.91221E-05  6659   0.355E-02
  21 F= -.97537410E+02 E0= -.97456055E+02  d E =-.957579E-03
 trial-energy change:   -0.000958  1 .order   -0.001141   -0.001575   -0.000706
 step:   4.2648(harm=  4.2648)  dis= 0.00876  next Energy=   -97.537880 (dE=-0.143E-02)
 bond charge predicted
       N       E                     dE             d eps       ncg     rms          rms(c)
DAV:   1    -0.975368626943E+02    0.54028E-03   -0.37547E-01  6800   0.180E+00    0.776E-02
RMM:   2    -0.975387860487E+02   -0.19234E-02   -0.61053E-03  6830   0.296E-01    0.301E-01
RMM:   3    -0.975376518364E+02    0.11342E-02   -0.73537E-04  7971   0.104E-01    0.123E-01
RMM:   4    -0.975374946269E+02    0.15721E-03   -0.23409E-04  6932   0.576E-02    0.776E-02
RMM:   5    -0.975374099638E+02    0.84663E-04   -0.59400E-05  5555   0.269E-02    0.405E-02
RMM:   6    -0.975373911650E+02    0.18799E-04   -0.30952E-05  4153   0.249E-02    0.279E-02
RMM:   7    -0.975373952095E+02   -0.40445E-05   -0.68926E-05  6254   0.325E-02
  22 F= -.97537395E+02 E0= -.97455824E+02  d E =-.943202E-03
 curvature:  -5.79 expect dE=-0.623E-03 dE for cont linesearch -0.418E-04
 trial: gam= 0.05699 g(F)=  0.108E-03 g(S)=  0.000E+00 ort =-0.115E-03 (trialstep = 0.274E+01)
 search vector abs. value=  0.101E-03
 bond charge predicted
       N       E                     dE             d eps       ncg     rms          rms(c)
DAV:   1    -0.975375499892E+02   -0.15882E-03   -0.44492E-02  6800   0.577E-01    0.216E-02
RMM:   2    -0.975376349982E+02   -0.85009E-04   -0.68056E-04  6833   0.103E-01    0.429E-02
RMM:   3    -0.975376675248E+02   -0.32527E-04   -0.80357E-05  6359   0.339E-02    0.599E-02
RMM:   4    -0.975376167557E+02    0.50769E-04   -0.16913E-05  3733   0.170E-02    0.204E-02
RMM:   5    -0.975376111072E+02    0.56485E-05   -0.69989E-06  3476   0.161E-02
  23 F= -.97537611E+02 E0= -.97456072E+02  d E =-.215898E-03
 trial-energy change:   -0.000216  1 .order   -0.000212   -0.000277   -0.000148
 step:   5.8926(harm=  5.8926)  dis= 0.00281  next Energy=   -97.537693 (dE=-0.298E-03)
 bond charge predicted
       N       E                     dE             d eps       ncg     rms          rms(c)
DAV:   1    -0.975376638738E+02   -0.47118E-04   -0.59621E-02  6800   0.665E-01    0.245E-02
RMM:   2    -0.975379287249E+02   -0.26485E-03   -0.77319E-04  6837   0.105E-01    0.112E-01
RMM:   3    -0.975377512702E+02    0.17745E-03   -0.87341E-05  6534   0.385E-02    0.318E-02
RMM:   4    -0.975377394693E+02    0.11801E-04   -0.14226E-05  3720   0.158E-02    0.230E-02
RMM:   5    -0.975377338171E+02    0.56522E-05   -0.76515E-06  3502   0.165E-02
  24 F= -.97537734E+02 E0= -.97456264E+02  d E =-.338608E-03
 curvature:  -2.93 expect dE=-0.136E-03 dE for cont linesearch -0.479E-05
 trial: gam= 0.19915 g(F)=  0.463E-04 g(S)=  0.000E+00 ort = 0.128E-04 (trialstep = 0.337E+01)
 search vector abs. value=  0.554E-04
 bond charge predicted
       N       E                     dE             d eps       ncg     rms          rms(c)
DAV:   1    -0.975377546189E+02   -0.15150E-04   -0.35795E-02  6800   0.571E-01    0.260E-02
RMM:   2    -0.975381182927E+02   -0.36367E-03   -0.68341E-04  6847   0.932E-02    0.140E-01
RMM:   3    -0.975378235263E+02    0.29477E-03   -0.68266E-05  5713   0.332E-02    0.261E-02
RMM:   4    -0.975378158693E+02    0.76570E-05   -0.20749E-05  3855   0.216E-02
  25 F= -.97537816E+02 E0= -.97456459E+02  d E =-.820522E-04
 trial-energy change:   -0.000082  1 .order   -0.000075   -0.000165    0.000015
 step:   3.0771(harm=  3.0771)  dis= 0.00144  next Energy=   -97.537809 (dE=-0.752E-04)
 bond charge predicted
       N       E                     dE             d eps       ncg     rms          rms(c)
DAV:   1    -0.975378112953E+02    0.12231E-04   -0.29121E-04  7900   0.624E-02    0.128E-02
RMM:   2    -0.975378839865E+02   -0.72691E-04   -0.34118E-05  4506   0.235E-02    0.681E-02
RMM:   3    -0.975378363218E+02    0.47665E-04   -0.13933E-05  3666   0.192E-02    0.411E-02
RMM:   4    -0.975378102771E+02    0.26045E-04   -0.55917E-06  3522   0.112E-02    0.627E-03
RMM:   5    -0.975378100664E+02    0.21062E-06   -0.25339E-06  3424   0.813E-03
  26 F= -.97537810E+02 E0= -.97456453E+02  d E =-.762493E-04
 curvature:  -1.74 expect dE=-0.300E-04 dE for cont linesearch -0.743E-06
 trial: gam= 0.33760 g(F)=  0.172E-04 g(S)=  0.000E+00 ort = 0.486E-05 (trialstep = 0.331E+01)
 search vector abs. value=  0.268E-04
 reached required accuracy - stopping structural energy minimisation
 writing wavefunctions
