 running on   35 total cores
 distrk:  each k-point on   35 cores,    1 groups
 distr:  one band on    1 cores,   35 groups
 using from now: INCAR     
 vasp.5.4.1 24Jun15 (build Oct 26 2018 17:15:27) complex                        
  
 POSCAR found type information on POSCAR  Pt
 POSCAR found :  1 types and      16 ions
 scaLAPACK will be used

 ----------------------------------------------------------------------------- 
|                                                                             |
|           W    W    AA    RRRRR   N    N  II  N    N   GGGG   !!!           |
|           W    W   A  A   R    R  NN   N  II  NN   N  G    G  !!!           |
|           W    W  A    A  R    R  N N  N  II  N N  N  G       !!!           |
|           W WW W  AAAAAA  RRRRR   N  N N  II  N  N N  G  GGG   !            |
|           WW  WW  A    A  R   R   N   NN  II  N   NN  G    G                |
|           W    W  A    A  R    R  N    N  II  N    N   GGGG   !!!           |
|                                                                             |
|      For optimal performance we recommend to set                            |
|        NCORE= 4 - approx SQRT( number of cores)                             |
|      NCORE specifies how many cores store one orbital (NPAR=cpu/NCORE).     |
|      This setting can  greatly improve the performance of VASP for DFT.     |
|      The default, NPAR=number of cores might be grossly inefficient         |
|      on modern multi-core architectures or massively parallel machines.     |
|      Do your own testing !!!!                                               |
|      Unfortunately you need to use the default for GW and RPA calculations. |
|      (for HF NCORE is supported but not extensively tested yet)             |
|                                                                             |
 ----------------------------------------------------------------------------- 

 LDA part: xc-table for Ceperly-Alder, standard interpolation
 POSCAR, INCAR and KPOINTS ok, starting setup
 WARNING: small aliasing (wrap around) errors must be expected
 FFT: planning ...
 WAVECAR not read
 entering main loop
       N       E                     dE             d eps       ncg     rms          rms(c)
DAV:   1     0.162011511650E+04    0.16201E+04   -0.67201E+04  6720   0.132E+03
DAV:   2     0.417784119359E+02   -0.15783E+04   -0.14469E+04  6720   0.436E+02
DAV:   3    -0.926186912088E+02   -0.13440E+03   -0.12844E+03  8960   0.108E+02
DAV:   4    -0.968169885761E+02   -0.41983E+01   -0.41752E+01  7210   0.302E+01
DAV:   5    -0.969284837929E+02   -0.11150E+00   -0.11146E+00 10185   0.308E+00    0.149E+01
DAV:   6    -0.102670193057E+03   -0.57417E+01   -0.76129E+01 10990   0.412E+01    0.220E+01
DAV:   7    -0.981269072485E+02    0.45433E+01   -0.16906E+02 11865   0.466E+01    0.137E+01
DAV:   8    -0.115392255154E+03   -0.17265E+02   -0.20906E+02 13230   0.665E+01    0.235E+01
DAV:   9    -0.936784389173E+02    0.21714E+02   -0.89494E+01 12495   0.383E+01    0.125E+01
DAV:  10    -0.920161246541E+02    0.16623E+01   -0.53279E+00 10185   0.990E+00    0.695E+00
DAV:  11    -0.914838869058E+02    0.53224E+00   -0.85688E-01  9905   0.483E+00    0.440E+00
DAV:  12    -0.913354187585E+02    0.14847E+00   -0.77434E-01 10885   0.395E+00    0.316E+00
DAV:  13    -0.911869009113E+02    0.14852E+00   -0.46220E-01 10395   0.361E+00    0.174E+00
DAV:  14    -0.911541202408E+02    0.32781E-01   -0.21694E-01 10150   0.239E+00    0.929E-01
DAV:  15    -0.911748571843E+02   -0.20737E-01   -0.43438E-01 11200   0.218E+00    0.163E+00
DAV:  16    -0.911518652297E+02    0.22992E-01   -0.60657E-02 10185   0.123E+00    0.104E+00
DAV:  17    -0.911383090532E+02    0.13556E-01   -0.11674E-01 10990   0.117E+00    0.287E-01
DAV:  18    -0.911376465198E+02    0.66253E-03   -0.32601E-03  8330   0.325E-01    0.229E-01
DAV:  19    -0.911370891108E+02    0.55741E-03   -0.13236E-03 10920   0.205E-01    0.154E-01
DAV:  20    -0.911364113259E+02    0.67778E-03   -0.31277E-03 10115   0.206E-01    0.592E-02
DAV:  21    -0.911362052501E+02    0.20608E-03   -0.72453E-04  9975   0.103E-01    0.425E-02
DAV:  22    -0.911361741262E+02    0.31124E-04   -0.11021E-03  6790   0.893E-02    0.665E-02
DAV:  23    -0.911362231998E+02   -0.49074E-04   -0.12514E-03  7385   0.106E-01    0.506E-02
DAV:  24    -0.911363160584E+02   -0.92859E-04   -0.77869E-05  6335   0.299E-02    0.263E-02
DAV:  25    -0.911364529532E+02   -0.13689E-03   -0.16300E-04  7000   0.342E-02    0.139E-02
DAV:  26    -0.911366086513E+02   -0.15570E-03   -0.77257E-04  7280   0.758E-02    0.733E-02
DAV:  27    -0.911365672677E+02    0.41384E-04   -0.39557E-04  6545   0.555E-02    0.962E-03
DAV:  28    -0.911366069344E+02   -0.39667E-04   -0.27956E-04  6265   0.427E-02    0.429E-02
DAV:  29    -0.911366127168E+02   -0.57824E-05   -0.13706E-05  5950   0.158E-02
   1 F= -.91136613E+02 E0= -.91135688E+02  d E =-.911366E+02
 curvature:   0.00 expect dE= 0.000E+00 dE for cont linesearch  0.000E+00
 trial: gam= 0.00000 g(F)=  0.588E-01 g(S)=  0.000E+00 ort = 0.000E+00 (trialstep = 0.100E+01)
 search vector abs. value=  0.588E-01
 bond charge predicted
       N       E                     dE             d eps       ncg     rms          rms(c)
DAV:   1    -0.911895717592E+02   -0.52965E-01   -0.34736E+00  6720   0.460E+00    0.251E-01
DAV:   2    -0.912269525605E+02   -0.37381E-01   -0.27768E-01 10640   0.188E+00    0.151E+00
DAV:   3    -0.912357361774E+02   -0.87836E-02   -0.73463E-01 11725   0.261E+00    0.181E+00
DAV:   4    -0.911943699049E+02    0.41366E-01   -0.31198E-01 11865   0.166E+00    0.211E-01
DAV:   5    -0.911934565247E+02    0.91338E-03   -0.49457E-03  9380   0.332E-01    0.113E-01
DAV:   6    -0.911932964822E+02    0.16004E-03   -0.59554E-04 10325   0.153E-01    0.778E-02
DAV:   7    -0.911932169852E+02    0.79497E-04   -0.84280E-04  9415   0.126E-01    0.549E-02
DAV:   8    -0.911931843331E+02    0.32652E-04   -0.20451E-04 10465   0.104E-01    0.285E-02
DAV:   9    -0.911931743223E+02    0.10011E-04   -0.42236E-05  5495   0.335E-02    0.135E-02
DAV:  10    -0.911931749490E+02   -0.62669E-06   -0.33445E-05  6160   0.323E-02
   2 F= -.91193175E+02 E0= -.91192157E+02  d E =-.565622E-01
 ZBRENT: can't locate minimum, use default step
 trial-energy change:   -0.056562  1 .order   -0.056522   -0.058833   -0.054211
 step:   4.0000(harm= 12.7286)  dis= 0.03398  next Energy=   -91.511046 (dE=-0.374E+00)
 bond charge predicted
       N       E                     dE             d eps       ncg     rms          rms(c)
DAV:   1    -0.912947810393E+02   -0.10161E+00   -0.31207E+01  6720   0.139E+01    0.851E-01
DAV:   2    -0.915547995375E+02   -0.26002E+00   -0.20431E+00 10745   0.599E+00    0.371E+00
DAV:   3    -0.913645685577E+02    0.19023E+00   -0.15954E+00 10955   0.518E+00    0.143E+00
DAV:   4    -0.913860740834E+02   -0.21506E-01   -0.93163E-01 11165   0.260E+00    0.203E+00
DAV:   5    -0.913383806697E+02    0.47693E-01   -0.40205E-01 11200   0.185E+00    0.397E-01
DAV:   6    -0.913364110961E+02    0.19696E-02   -0.76263E-03  9590   0.410E-01    0.270E-01
DAV:   7    -0.913352371219E+02    0.11740E-02   -0.93780E-03  9975   0.393E-01    0.203E-01
DAV:   8    -0.913351046163E+02    0.13251E-03   -0.46075E-03 11130   0.386E-01    0.163E-01
DAV:   9    -0.913347846637E+02    0.31995E-03   -0.28839E-03 10990   0.258E-01    0.734E-02
DAV:  10    -0.913347037918E+02    0.80872E-04   -0.57133E-04 10605   0.117E-01    0.334E-02
DAV:  11    -0.913346740819E+02    0.29710E-04   -0.94742E-05  8785   0.466E-02    0.138E-02
DAV:  12    -0.913346705216E+02    0.35603E-05   -0.20233E-05  6300   0.268E-02
   3 F= -.91334671E+02 E0= -.91333561E+02  d E =-.198058E+00
 curvature:  -2.84 expect dE=-0.770E-01 dE for cont linesearch -0.758E-01
 ZBRENT: increasing intervall
 opt :  10.0000  next Energy=   -91.484965 (dE=-0.348E+00)
 bond charge predicted
       N       E                     dE             d eps       ncg     rms          rms(c)
DAV:   1    -0.912698557046E+02    0.64818E-01   -0.12474E+02  6720   0.280E+01    0.207E+00
DAV:   2    -0.926707789860E+02   -0.14009E+01   -0.11831E+01 10815   0.149E+01    0.845E+00
DAV:   3    -0.915762911141E+02    0.10945E+01   -0.79161E+00 11305   0.118E+01    0.212E+00
DAV:   4    -0.921988346666E+02   -0.62254E+00   -0.69825E+00 12110   0.728E+00    0.730E+00
DAV:   5    -0.915137726451E+02    0.68506E+00   -0.48965E+00 12250   0.625E+00    0.837E-01
DAV:   6    -0.915016768857E+02    0.12096E-01   -0.55986E-02  9240   0.103E+00    0.607E-01
DAV:   7    -0.914961401893E+02    0.55367E-02   -0.42076E-02 10290   0.106E+00    0.446E-01
DAV:   8    -0.914967933478E+02   -0.65316E-03   -0.33706E-02 10920   0.998E-01    0.516E-01
DAV:   9    -0.914931062367E+02    0.36871E-02   -0.21991E-02 10920   0.710E-01    0.101E-01
DAV:  10    -0.914929675923E+02    0.13864E-03   -0.14951E-03 10080   0.198E-01    0.707E-02
DAV:  11    -0.914928831308E+02    0.84461E-04   -0.44755E-04 10745   0.129E-01    0.474E-02
DAV:  12    -0.914928408971E+02    0.42234E-04   -0.30708E-04  9695   0.616E-02    0.129E-02
DAV:  13    -0.914928392259E+02    0.16711E-05   -0.16203E-05  6195   0.260E-02
   4 F= -.91492839E+02 E0= -.91491767E+02  d E =-.356227E+00
 curvature:  -5.63 expect dE=-0.257E-01 dE for cont linesearch -0.181E-01
 ZBRENT: increasing intervall
 opt :  22.0000  next Energy=   -91.347398 (dE=-0.211E+00)
 bond charge predicted
       N       E                     dE             d eps       ncg     rms          rms(c)
DAV:   1    -0.901216440573E+02    0.13712E+01   -0.50345E+02  6720   0.587E+01    0.468E+00
DAV:   2    -0.978087530750E+02   -0.76871E+01   -0.66919E+01 10850   0.355E+01    0.168E+01
DAV:   3    -0.915778427300E+02    0.62309E+01   -0.29970E+01 11865   0.253E+01    0.330E+00
DAV:   4    -0.924522785977E+02   -0.87444E+00   -0.10383E+01 11130   0.106E+01    0.828E+00
DAV:   5    -0.914153772607E+02    0.10369E+01   -0.92883E+00 11025   0.942E+00    0.206E+00
DAV:   6    -0.913659199653E+02    0.49457E-01   -0.32547E-01  9660   0.206E+00    0.143E+00
DAV:   7    -0.913340825945E+02    0.31837E-01   -0.28141E-01 10465   0.240E+00    0.112E+00
DAV:   8    -0.913210169697E+02    0.13066E-01   -0.10368E-01 10255   0.171E+00    0.667E-01
DAV:   9    -0.913161417556E+02    0.48752E-02   -0.32931E-02 10675   0.892E-01    0.287E-01
DAV:  10    -0.913147046506E+02    0.14371E-02   -0.59767E-03  9975   0.368E-01    0.190E-01
DAV:  11    -0.913140776929E+02    0.62696E-03   -0.30325E-03 10815   0.287E-01    0.115E-01
DAV:  12    -0.913138986468E+02    0.17905E-03   -0.13899E-03 10675   0.197E-01    0.797E-02
DAV:  13    -0.913138670199E+02    0.31627E-04   -0.21704E-03 10605   0.164E-01    0.765E-02
DAV:  14    -0.913138033292E+02    0.63691E-04   -0.94397E-04  8715   0.100E-01    0.262E-02
DAV:  15    -0.913138019404E+02    0.13887E-05   -0.43519E-05  6825   0.318E-02
   5 F= -.91313802E+02 E0= -.91312942E+02  d E =-.177189E+00
 curvature:  45.23 expect dE= 0.221E+01 dE for cont linesearch  0.158E+01
 ZBRENT: bracketing found
 ZBRENT: interpolating
 opt :  12.7951  next Energy=   -91.512062 (dE=-0.375E+00)
 bond charge predicted
       N       E                     dE             d eps       ncg     rms          rms(c)
DAV:   1    -0.908082999573E+02    0.50550E+00   -0.29394E+02  6720   0.442E+01    0.246E+00
DAV:   2    -0.929861500807E+02   -0.21779E+01   -0.17643E+01 10430   0.148E+01    0.918E+00
DAV:   3    -0.917553958223E+02    0.12308E+01   -0.11364E+01 10080   0.150E+01    0.379E+00
DAV:   4    -0.925136213214E+02   -0.75823E+00   -0.11837E+01 12390   0.102E+01    0.789E+00
DAV:   5    -0.915707651160E+02    0.94286E+00   -0.58002E+00 12530   0.763E+00    0.143E+00
DAV:   6    -0.915467325470E+02    0.24033E-01   -0.78902E-02  9345   0.138E+00    0.119E+00
DAV:   7    -0.915239728018E+02    0.22760E-01   -0.84431E-02 10080   0.126E+00    0.674E-01
DAV:   8    -0.915181425085E+02    0.58303E-02   -0.58812E-02  9590   0.135E+00    0.475E-01
DAV:   9    -0.915156423686E+02    0.25001E-02   -0.33755E-02 10185   0.908E-01    0.274E-01
DAV:  10    -0.915150418533E+02    0.60052E-03   -0.13216E-02 10920   0.534E-01    0.198E-01
DAV:  11    -0.915144465214E+02    0.59533E-03   -0.27709E-03 10675   0.266E-01    0.719E-02
DAV:  12    -0.915144047158E+02    0.41806E-04   -0.13459E-03 10955   0.150E-01    0.826E-02
DAV:  13    -0.915143478157E+02    0.56900E-04   -0.18824E-04  8890   0.738E-02    0.556E-02
DAV:  14    -0.915143661599E+02   -0.18344E-04   -0.13149E-03  6125   0.995E-02    0.612E-02
DAV:  15    -0.915143612905E+02    0.48694E-05   -0.60069E-05  7490   0.307E-02
   6 F= -.91514361E+02 E0= -.91513407E+02  d E =-.377749E+00
 curvature:  -0.55 expect dE=-0.113E-02 dE for cont linesearch -0.129E-04
 trial: gam= 0.01500 g(F)=  0.205E-02 g(S)=  0.000E+00 ort = 0.117E-02 (trialstep = 0.336E+01)
 search vector abs. value=  0.210E-02
 bond charge predicted
       N       E                     dE             d eps       ncg     rms          rms(c)
DAV:   1    -0.915189347696E+02   -0.45686E-02   -0.13562E+00  6720   0.294E+00    0.100E-01
DAV:   2    -0.915296033366E+02   -0.10669E-01   -0.91579E-02 10850   0.963E-01    0.828E-01
DAV:   3    -0.915212772933E+02    0.83260E-02   -0.96524E-02 10780   0.958E-01    0.215E-01
DAV:   4    -0.915208328487E+02    0.44444E-03   -0.77132E-03  9520   0.324E-01    0.143E-01
DAV:   5    -0.915205641300E+02    0.26872E-03   -0.16528E-03  9660   0.173E-01    0.576E-02
DAV:   6    -0.915205335537E+02    0.30576E-04   -0.21203E-04 10500   0.764E-02    0.482E-02
DAV:   7    -0.915205377511E+02   -0.41974E-05   -0.59559E-04  9765   0.945E-02    0.525E-02
DAV:   8    -0.915205109303E+02    0.26821E-04   -0.13330E-04  6755   0.670E-02    0.260E-02
DAV:   9    -0.915205100791E+02    0.85128E-06   -0.30633E-05  5180   0.292E-02
   7 F= -.91520510E+02 E0= -.91519596E+02  d E =-.614879E-02
 ZBRENT: can't locate minimum, use default step
 trial-energy change:   -0.006149  1 .order   -0.006148   -0.006957   -0.005340
 step:  13.4360(harm= 14.4512)  dis= 0.02151  next Energy=   -91.529326 (dE=-0.150E-01)
 bond charge predicted
       N       E                     dE             d eps       ncg     rms          rms(c)
DAV:   1    -0.915119943998E+02    0.85165E-02   -0.12195E+01  6720   0.882E+00    0.295E-01
DAV:   2    -0.915391517701E+02   -0.27157E-01   -0.26908E-01 10360   0.192E+00    0.885E-01
DAV:   3    -0.915420676868E+02   -0.29159E-02   -0.32293E-01 10955   0.177E+00    0.998E-01
DAV:   4    -0.915306711555E+02    0.11397E-01   -0.11111E-01 11935   0.107E+00    0.449E-01
DAV:   5    -0.915283254676E+02    0.23457E-02   -0.14894E-02 11060   0.466E-01    0.183E-01
DAV:   6    -0.915280307653E+02    0.29470E-03   -0.27864E-03  9170   0.260E-01    0.158E-01
DAV:   7    -0.915275930977E+02    0.43767E-03   -0.30724E-03  9905   0.275E-01    0.803E-02
DAV:   8    -0.915275774217E+02    0.15676E-04   -0.12482E-03 10675   0.203E-01    0.720E-02
DAV:   9    -0.915275269940E+02    0.50428E-04   -0.11836E-03  9695   0.122E-01    0.439E-02
DAV:  10    -0.915275068679E+02    0.20126E-04   -0.17505E-04  5635   0.597E-02    0.158E-02
DAV:  11    -0.915275110059E+02   -0.41380E-05   -0.57892E-05  5635   0.308E-02
   8 F= -.91527511E+02 E0= -.91526769E+02  d E =-.131497E-01
 curvature:  -7.27 expect dE=-0.201E-02 dE for cont linesearch -0.197E-03
 ZBRENT: interpolating
 opt :  12.1222  next Energy=   -91.527668 (dE=-0.133E-01)
 bond charge predicted
       N       E                     dE             d eps       ncg     rms          rms(c)
DAV:   1    -0.915274231242E+02    0.83744E-04   -0.20784E-01  6720   0.115E+00    0.356E-02
DAV:   2    -0.915282903560E+02   -0.86723E-03   -0.76938E-03 10780   0.304E-01    0.219E-01
DAV:   3    -0.915277925741E+02    0.49778E-03   -0.83783E-03 10710   0.279E-01    0.885E-02
DAV:   4    -0.915277167735E+02    0.75801E-04   -0.11092E-03  8400   0.114E-01    0.519E-02
DAV:   5    -0.915276815770E+02    0.35196E-04   -0.18728E-04  5670   0.576E-02    0.233E-02
DAV:   6    -0.915276779935E+02    0.35835E-05   -0.28869E-05  6090   0.295E-02
   9 F= -.91527678E+02 E0= -.91526922E+02  d E =-.133167E-01
 curvature:  -5.79 expect dE=-0.102E-02 dE for cont linesearch -0.219E-09
 trial: gam= 0.09226 g(F)=  0.177E-03 g(S)=  0.000E+00 ort = 0.282E-06 (trialstep = 0.511E+01)
 search vector abs. value=  0.195E-03
 bond charge predicted
       N       E                     dE             d eps       ncg     rms          rms(c)
DAV:   1    -0.915282152372E+02   -0.53366E-03   -0.29810E-01  6720   0.135E+00    0.622E-02
DAV:   2    -0.915351120671E+02   -0.68968E-02   -0.57704E-02 10885   0.728E-01    0.685E-01
DAV:   3    -0.915295127970E+02    0.55993E-02   -0.70146E-02 10955   0.810E-01    0.250E-01
DAV:   4    -0.915286191386E+02    0.89366E-03   -0.72218E-03  9590   0.293E-01    0.632E-02
DAV:   5    -0.915285682650E+02    0.50874E-04   -0.48307E-04  9975   0.100E-01    0.385E-02
DAV:   6    -0.915285509340E+02    0.17331E-04   -0.99218E-05  6160   0.524E-02    0.267E-02
DAV:   7    -0.915285549144E+02   -0.39804E-05   -0.14404E-04  9135   0.638E-02    0.310E-02
DAV:   8    -0.915285396444E+02    0.15270E-04   -0.89442E-05  6020   0.528E-02    0.694E-03
DAV:   9    -0.915285398980E+02   -0.25368E-06   -0.18938E-05  5740   0.180E-02
  10 F= -.91528540E+02 E0= -.91527758E+02  d E =-.861905E-03
 ZBRENT: can't locate minimum, use default step
 trial-energy change:   -0.000862  1 .order   -0.000841   -0.000903   -0.000780
 step:  20.4466(harm= 37.4166)  dis= 0.00955  next Energy=   -91.530983 (dE=-0.331E-02)
 bond charge predicted
       N       E                     dE             d eps       ncg     rms          rms(c)
DAV:   1    -0.915268394755E+02    0.17002E-02   -0.26782E+00  6720   0.404E+00    0.192E-01
DAV:   2    -0.915704693312E+02   -0.43630E-01   -0.35553E-01 10850   0.200E+00    0.171E+00
DAV:   3    -0.915385358080E+02    0.31934E-01   -0.46263E-01 11130   0.211E+00    0.732E-01
DAV:   4    -0.915307014013E+02    0.78344E-02   -0.59220E-02  9870   0.851E-01    0.201E-01
DAV:   5    -0.915301523236E+02    0.54908E-03   -0.38676E-03  9660   0.287E-01    0.109E-01
DAV:   6    -0.915300091087E+02    0.14321E-03   -0.71355E-04 10570   0.140E-01    0.752E-02
DAV:   7    -0.915300746945E+02   -0.65586E-04   -0.14478E-03  9590   0.193E-01    0.106E-01
DAV:   8    -0.915298854953E+02    0.18920E-03   -0.10062E-03 10570   0.169E-01    0.136E-02
DAV:   9    -0.915298918152E+02   -0.63199E-05   -0.13846E-04  7350   0.478E-02    0.239E-02
DAV:  10    -0.915298844808E+02    0.73345E-05   -0.41324E-05  5810   0.317E-02
  11 F= -.91529884E+02 E0= -.91529000E+02  d E =-.220649E-02
 curvature: -14.92 expect dE=-0.234E-02 dE for cont linesearch -0.555E-04
 trial: gam= 0.74262 g(F)=  0.157E-03 g(S)=  0.000E+00 ort = 0.269E-04 (trialstep = 0.523E+01)
 search vector abs. value=  0.304E-03
 bond charge predicted
       N       E                     dE             d eps       ncg     rms          rms(c)
DAV:   1    -0.915300768948E+02   -0.18508E-03   -0.48091E-01  6720   0.175E+00    0.594E-02
DAV:   2    -0.915379660593E+02   -0.78892E-02   -0.65029E-02 10745   0.762E-01    0.743E-01
DAV:   3    -0.915308442868E+02    0.71218E-02   -0.61832E-02 10570   0.764E-01    0.818E-02
DAV:   4    -0.915307053259E+02    0.13896E-03   -0.95454E-04  8505   0.151E-01    0.594E-02
DAV:   5    -0.915306801496E+02    0.25176E-04   -0.39015E-04  8400   0.932E-02    0.477E-02
DAV:   6    -0.915306574429E+02    0.22707E-04   -0.13805E-04  6020   0.531E-02    0.346E-02
DAV:   7    -0.915306542896E+02    0.31533E-05   -0.21521E-04  9940   0.701E-02    0.377E-02
DAV:   8    -0.915306327358E+02    0.21554E-04   -0.11830E-04  8365   0.618E-02    0.118E-02
DAV:   9    -0.915306340828E+02   -0.13470E-05   -0.15757E-05  4725   0.209E-02
  12 F= -.91530634E+02 E0= -.91529723E+02  d E =-.749602E-03
 trial-energy change:   -0.000750  1 .order   -0.000748   -0.000925   -0.000571
 step:  13.6519(harm= 13.6519)  dis= 0.00749  next Energy=   -91.531092 (dE=-0.121E-02)
 bond charge predicted
       N       E                     dE             d eps       ncg     rms          rms(c)
DAV:   1    -0.915295967146E+02    0.10360E-02   -0.12446E+00  6720   0.282E+00    0.962E-02
DAV:   2    -0.915467416471E+02   -0.17145E-01   -0.13685E-01 10675   0.114E+00    0.110E+00
DAV:   3    -0.915315948680E+02    0.15147E-01   -0.13767E-01 10605   0.114E+00    0.140E-01
DAV:   4    -0.915311803752E+02    0.41449E-03   -0.20773E-03  8575   0.235E-01    0.762E-02
DAV:   5    -0.915311290591E+02    0.51316E-04   -0.47434E-04  9450   0.119E-01    0.662E-02
DAV:   6    -0.915311144490E+02    0.14610E-04   -0.46411E-04  8505   0.880E-02    0.653E-02
DAV:   7    -0.915310911438E+02    0.23305E-04   -0.66733E-04 10325   0.120E-01    0.606E-02
DAV:   8    -0.915310299698E+02    0.61174E-04   -0.30962E-04 10045   0.976E-02    0.158E-02
DAV:   9    -0.915310318583E+02   -0.18885E-05   -0.40169E-05  5320   0.353E-02
  13 F= -.91531032E+02 E0= -.91530070E+02  d E =-.114738E-02
 curvature: -11.74 expect dE=-0.428E-03 dE for cont linesearch -0.150E-05
 trial: gam= 0.33416 g(F)=  0.365E-04 g(S)=  0.000E+00 ort =-0.623E-05 (trialstep = 0.692E+01)
 search vector abs. value=  0.663E-04
 bond charge predicted
       N       E                     dE             d eps       ncg     rms          rms(c)
DAV:   1    -0.915310185463E+02    0.11423E-04   -0.18230E-01  6720   0.108E+00    0.380E-02
DAV:   2    -0.915317900658E+02   -0.77152E-03   -0.62532E-03 10430   0.275E-01    0.209E-01
DAV:   3    -0.915318801665E+02   -0.90101E-04   -0.13100E-02 10815   0.357E-01    0.223E-01
DAV:   4    -0.915312692836E+02    0.61088E-03   -0.53303E-03 10150   0.225E-01    0.391E-02
DAV:   5    -0.915312415689E+02    0.27715E-04   -0.10345E-04  6755   0.447E-02    0.228E-02
DAV:   6    -0.915312376957E+02    0.38732E-05   -0.23174E-05  6125   0.299E-02
  14 F= -.91531238E+02 E0= -.91530285E+02  d E =-.205837E-03
 ZBRENT: can't locate minimum, use default step
 trial-energy change:   -0.000206  1 .order   -0.000210   -0.000238   -0.000182
 step:  27.6655(harm= 29.5115)  dis= 0.01034  next Energy=   -91.531540 (dE=-0.508E-03)
 bond charge predicted
       N       E                     dE             d eps       ncg     rms          rms(c)
DAV:   1    -0.915291062212E+02    0.21353E-02   -0.16426E+00  6720   0.323E+00    0.112E-01
DAV:   2    -0.915356118294E+02   -0.65056E-02   -0.51812E-02 10080   0.764E-01    0.608E-01
DAV:   3    -0.915363116374E+02   -0.69981E-03   -0.11020E-01 10535   0.101E+00    0.642E-01
DAV:   4    -0.915313063907E+02    0.50052E-02   -0.47144E-02 11095   0.664E-01    0.125E-01
DAV:   5    -0.915310546675E+02    0.25172E-03   -0.11140E-03  8995   0.130E-01    0.751E-02
DAV:   6    -0.915310151770E+02    0.39491E-04   -0.25494E-04  9940   0.894E-02    0.681E-02
DAV:   7    -0.915309117060E+02    0.10347E-03   -0.53749E-04  8995   0.922E-02    0.335E-02
DAV:   8    -0.915309001146E+02    0.11591E-04   -0.15148E-04  9205   0.699E-02    0.160E-02
DAV:   9    -0.915308970772E+02    0.30374E-05   -0.15910E-05  6160   0.276E-02
  15 F= -.91530897E+02 E0= -.91529967E+02  d E =0.134781E-03
 curvature: -28.24 expect dE=-0.272E-02 dE for cont linesearch -0.126E-02
 ZBRENT: interpolating
 opt :  13.6913  next Energy=   -91.531327 (dE=-0.295E-03)
 bond charge predicted
       N       E                     dE             d eps       ncg     rms          rms(c)
DAV:   1    -0.915304981786E+02    0.40194E-03   -0.74513E-01  6720   0.218E+00    0.702E-02
DAV:   2    -0.915331989243E+02   -0.27007E-02   -0.22705E-02 10325   0.518E-01    0.370E-01
DAV:   3    -0.915334813308E+02   -0.28241E-03   -0.41566E-02 10675   0.648E-01    0.401E-01
DAV:   4    -0.915314602506E+02    0.20211E-02   -0.17195E-02 10850   0.418E-01    0.743E-02
DAV:   5    -0.915313698052E+02    0.90445E-04   -0.33452E-04  8120   0.744E-02    0.494E-02
DAV:   6    -0.915313526690E+02    0.17136E-04   -0.77108E-05  6720   0.501E-02    0.476E-02
DAV:   7    -0.915313099212E+02    0.42748E-04   -0.28714E-04  9520   0.743E-02    0.329E-02
DAV:   8    -0.915312938841E+02    0.16037E-04   -0.90912E-05  7910   0.603E-02    0.143E-02
DAV:   9    -0.915312922813E+02    0.16028E-05   -0.19514E-05  4515   0.221E-02
  16 F= -.91531292E+02 E0= -.91530343E+02  d E =-.260423E-03
 curvature:  -2.00 expect dE=-0.742E-05 dE for cont linesearch -0.671E-06
 trial: gam= 0.00000 g(F)=  0.370E-05 g(S)=  0.000E+00 ort =-0.471E-05 (trialstep = 0.827E+01)
 search vector abs. value=  0.370E-05
 reached required accuracy - stopping structural energy minimisation
 writing wavefunctions
