 running on   16 total cores
 distrk:  each k-point on   16 cores,    1 groups
 distr:  one band on    1 cores,   16 groups
 using from now: INCAR     
 vasp.5.4.1 24Jun15 (build Oct 26 2018 17:15:27) complex                        
  
 POSCAR found type information on POSCAR  C  N  H 
 POSCAR found :  3 types and       3 ions
 scaLAPACK will be used

 ----------------------------------------------------------------------------- 
|                                                                             |
|           W    W    AA    RRRRR   N    N  II  N    N   GGGG   !!!           |
|           W    W   A  A   R    R  NN   N  II  NN   N  G    G  !!!           |
|           W    W  A    A  R    R  N N  N  II  N N  N  G       !!!           |
|           W WW W  AAAAAA  RRRRR   N  N N  II  N  N N  G  GGG   !            |
|           WW  WW  A    A  R   R   N   NN  II  N   NN  G    G                |
|           W    W  A    A  R    R  N    N  II  N    N   GGGG   !!!           |
|                                                                             |
|      For optimal performance we recommend to set                            |
|        NCORE= 4 - approx SQRT( number of cores)                             |
|      NCORE specifies how many cores store one orbital (NPAR=cpu/NCORE).     |
|      This setting can  greatly improve the performance of VASP for DFT.     |
|      The default, NPAR=number of cores might be grossly inefficient         |
|      on modern multi-core architectures or massively parallel machines.     |
|      Do your own testing !!!!                                               |
|      Unfortunately you need to use the default for GW and RPA calculations. |
|      (for HF NCORE is supported but not extensively tested yet)             |
|                                                                             |
 ----------------------------------------------------------------------------- 

 LDA part: xc-table for Ceperly-Alder, standard interpolation
 POSCAR, INCAR and KPOINTS ok, starting setup
 WARNING: small aliasing (wrap around) errors must be expected
 FFT: planning ...
 WAVECAR not read
 entering main loop
       N       E                     dE             d eps       ncg     rms          rms(c)
DAV:   1     0.409652611271E+02    0.40965E+02   -0.20498E+03    64   0.251E+02
DAV:   2    -0.158420603311E+02   -0.56807E+02   -0.56807E+02    48   0.720E+01
DAV:   3    -0.215668326527E+02   -0.57248E+01   -0.57248E+01    64   0.270E+01
DAV:   4    -0.215802241806E+02   -0.13392E-01   -0.13392E-01    32   0.161E+00
DAV:   5    -0.215803884294E+02   -0.16425E-03   -0.16425E-03    48   0.178E-01    0.767E+00
DAV:   6    -0.197412814048E+02    0.18391E+01   -0.79155E+00    48   0.951E+00    0.404E+00
DAV:   7    -0.194224213537E+02    0.31886E+00   -0.17026E+00    48   0.450E+00    0.192E+00
DAV:   8    -0.193095458383E+02    0.11288E+00   -0.40774E-01    64   0.227E+00    0.798E-01
DAV:   9    -0.192847112720E+02    0.24835E-01   -0.16964E-02    32   0.679E-01    0.169E-01
DAV:  10    -0.192797975326E+02    0.49137E-02   -0.32336E-03    64   0.280E-01    0.919E-02
DAV:  11    -0.192795015143E+02    0.29602E-03   -0.71091E-03    32   0.401E-01    0.508E-02
DAV:  12    -0.192845899699E+02   -0.50885E-02   -0.32190E-03    32   0.319E-01    0.365E-02
DAV:  13    -0.192884851618E+02   -0.38952E-02   -0.21732E-03    32   0.202E-01    0.177E-02
DAV:  14    -0.192910982789E+02   -0.26131E-02   -0.73896E-04    32   0.110E-01    0.129E-02
DAV:  15    -0.192917331385E+02   -0.63486E-03   -0.10542E-04    64   0.369E-02    0.544E-03
DAV:  16    -0.192923278060E+02   -0.59467E-03   -0.78000E-05    32   0.329E-02    0.367E-03
DAV:  17    -0.192925047021E+02   -0.17690E-03   -0.12653E-05    64   0.118E-02    0.216E-03
DAV:  18    -0.192926616508E+02   -0.15695E-03   -0.11162E-05    32   0.107E-02    0.125E-03
DAV:  19    -0.192927133704E+02   -0.51720E-04   -0.21612E-06    32   0.505E-03    0.814E-04
DAV:  20    -0.192927440383E+02   -0.30668E-04   -0.14056E-06    32   0.401E-03    0.254E-04
DAV:  21    -0.192927491424E+02   -0.51041E-05   -0.90045E-08    32   0.185E-03
   1 F= -.19292749E+02 E0= -.19292749E+02  d E =-.192927E+02
 curvature:   0.00 expect dE= 0.000E+00 dE for cont linesearch  0.000E+00
 trial: gam= 0.00000 g(F)=  0.119E+00 g(S)=  0.000E+00 ort = 0.000E+00 (trialstep = 0.100E+01)
 search vector abs. value=  0.119E+00
 bond charge predicted
       N       E                     dE             d eps       ncg     rms          rms(c)
DAV:   1    -0.194017591411E+02   -0.10902E+00   -0.49446E-01    32   0.342E+00    0.255E-01
DAV:   2    -0.194010312993E+02    0.72784E-03   -0.12738E-02    48   0.412E-01    0.154E-01
DAV:   3    -0.194008517008E+02    0.17960E-03   -0.14967E-03    32   0.138E-01    0.834E-02
DAV:   4    -0.194008449786E+02    0.67222E-05   -0.38057E-04    32   0.899E-02    0.149E-02
DAV:   5    -0.194008667883E+02   -0.21810E-04   -0.33598E-05    32   0.288E-02    0.635E-03
DAV:   6    -0.194008994460E+02   -0.32658E-04   -0.12517E-05    32   0.161E-02    0.199E-03
DAV:   7    -0.194009113143E+02   -0.11868E-04   -0.16846E-06    32   0.527E-03    0.123E-03
DAV:   8    -0.194009288621E+02   -0.17548E-04   -0.55386E-06    32   0.806E-03    0.681E-04
DAV:   9    -0.194009345363E+02   -0.56742E-05   -0.11177E-06    32   0.340E-03
   2 F= -.19400935E+02 E0= -.19400935E+02  d E =-.108185E+00
 ZBRENT: can't locate minimum, use default step
 trial-energy change:   -0.108185  1 .order   -0.107907   -0.119335   -0.096480
 step:   4.0000(harm=  5.2215)  dis= 0.10631  next Energy=   -19.565910 (dE=-0.273E+00)
 bond charge predicted
       N       E                     dE             d eps       ncg     rms          rms(c)
DAV:   1    -0.195670282623E+02   -0.16610E+00   -0.47502E+00    32   0.105E+01    0.894E-01
DAV:   2    -0.195584286840E+02    0.85996E-02   -0.16067E-01    48   0.139E+00    0.549E-01
DAV:   3    -0.195561223934E+02    0.23063E-02   -0.22515E-02    32   0.514E-01    0.292E-01
DAV:   4    -0.195560490949E+02    0.73299E-04   -0.51857E-03    32   0.335E-01    0.519E-02
DAV:   5    -0.195562101298E+02   -0.16103E-03   -0.38133E-04    64   0.965E-02    0.216E-02
DAV:   6    -0.195564412993E+02   -0.23117E-03   -0.12309E-04    32   0.536E-02    0.766E-03
DAV:   7    -0.195565358442E+02   -0.94545E-04   -0.21920E-05    32   0.204E-02    0.385E-03
DAV:   8    -0.195566586873E+02   -0.12284E-03   -0.37173E-05    32   0.231E-02    0.180E-03
DAV:   9    -0.195567093005E+02   -0.50613E-04   -0.12983E-05    32   0.123E-02    0.144E-03
DAV:  10    -0.195567445954E+02   -0.35295E-04   -0.71456E-06    32   0.871E-03    0.890E-04
DAV:  11    -0.195567533007E+02   -0.87052E-05   -0.44055E-07    32   0.235E-03
   3 F= -.19556753E+02 E0= -.19556753E+02  d E =-.264004E+00
 curvature:  -2.39 expect dE=-0.959E-01 dE for cont linesearch -0.921E-05
 trial: gam= 0.34177 g(F)=  0.401E-01 g(S)=  0.000E+00 ort =-0.678E-03 (trialstep = 0.160E+01)
 search vector abs. value=  0.536E-01
 bond charge predicted
       N       E                     dE             d eps       ncg     rms          rms(c)
DAV:   1    -0.195806301038E+02   -0.23886E-01   -0.34071E+00    32   0.103E+01    0.619E-01
DAV:   2    -0.195772036888E+02    0.34264E-02   -0.53921E-02    48   0.118E+00    0.333E-01
DAV:   3    -0.195750436528E+02    0.21600E-02   -0.14151E-02    48   0.461E-01    0.119E-01
DAV:   4    -0.195748938756E+02    0.14978E-03   -0.18948E-03    32   0.158E-01    0.540E-02
DAV:   5    -0.195749245658E+02   -0.30690E-04   -0.20887E-04    64   0.620E-02    0.244E-02
DAV:   6    -0.195749694799E+02   -0.44914E-04   -0.30581E-05    32   0.306E-02    0.412E-03
DAV:   7    -0.195750120485E+02   -0.42569E-04   -0.64011E-06    48   0.945E-03    0.233E-03
DAV:   8    -0.195750572057E+02   -0.45157E-04   -0.44451E-06    32   0.786E-03    0.908E-04
DAV:   9    -0.195751040253E+02   -0.46820E-04   -0.49919E-06    48   0.778E-03    0.996E-04
DAV:  10    -0.195751198718E+02   -0.15846E-04   -0.80980E-07    32   0.329E-03    0.347E-04
DAV:  11    -0.195751311454E+02   -0.11274E-04   -0.55237E-07    32   0.282E-03    0.277E-04
DAV:  12    -0.195751335500E+02   -0.24046E-05   -0.11773E-07    64   0.166E-03
   4 F= -.19575134E+02 E0= -.19575134E+02  d E =-.183802E-01
 trial-energy change:   -0.018380  1 .order   -0.016946   -0.063801    0.029910
 step:   1.1202(harm=  1.0893)  dis= 0.00841  next Energy=   -19.579580 (dE=-0.228E-01)
 bond charge predicted
       N       E                     dE             d eps       ncg     rms          rms(c)
DAV:   1    -0.195801550693E+02   -0.50239E-02   -0.30684E-01    32   0.309E+00    0.191E-01
DAV:   2    -0.195797518290E+02    0.40324E-03   -0.49641E-03    48   0.353E-01    0.989E-02
DAV:   3    -0.195795815794E+02    0.17025E-03   -0.11306E-03    32   0.130E-01    0.374E-02
DAV:   4    -0.195795618307E+02    0.19749E-04   -0.18310E-04    32   0.505E-02    0.163E-02
DAV:   5    -0.195795608695E+02    0.96117E-06   -0.14873E-05    32   0.171E-02
   5 F= -.19579561E+02 E0= -.19579561E+02  d E =-.228076E-01
 curvature:  -0.73 expect dE=-0.429E-02 dE for cont linesearch -0.216E-07
 trial: gam= 0.09482 g(F)=  0.588E-02 g(S)=  0.000E+00 ort =-0.398E-04 (trialstep = 0.150E+01)
 search vector abs. value=  0.636E-02
 bond charge predicted
       N       E                     dE             d eps       ncg     rms          rms(c)
DAV:   1    -0.195880500613E+02   -0.84882E-02   -0.51506E-02    32   0.971E-01    0.739E-02
DAV:   2    -0.195880622861E+02   -0.12225E-04   -0.10682E-03    32   0.132E-01    0.469E-02
DAV:   3    -0.195880532620E+02    0.90241E-05   -0.10499E-04    32   0.386E-02    0.256E-02
DAV:   4    -0.195880492731E+02    0.39888E-05   -0.27262E-05    32   0.241E-02
   6 F= -.19588049E+02 E0= -.19588049E+02  d E =-.848840E-02
 ZBRENT: can't locate minimum, use default step
 trial-energy change:   -0.008488  1 .order   -0.008484   -0.008841   -0.008127
 step:   6.0161(harm= 18.6094)  dis= 0.00000  next Energy=   -19.634256 (dE=-0.547E-01)
 bond charge predicted
       N       E                     dE             d eps       ncg     rms          rms(c)
DAV:   1    -0.196088999842E+02   -0.20847E-01   -0.46103E-01    32   0.290E+00    0.223E-01
DAV:   2    -0.196089352339E+02   -0.35250E-04   -0.92433E-03    32   0.392E-01    0.139E-01
DAV:   3    -0.196088401260E+02    0.95108E-04   -0.93196E-04    64   0.116E-01    0.754E-02
DAV:   4    -0.196087694729E+02    0.70653E-04   -0.22650E-04    32   0.688E-02    0.108E-02
DAV:   5    -0.196088014458E+02   -0.31973E-04   -0.24605E-05    64   0.220E-02    0.559E-03
DAV:   6    -0.196088611858E+02   -0.59740E-04   -0.13149E-05    32   0.139E-02    0.227E-03
DAV:   7    -0.196088937001E+02   -0.32514E-04   -0.27795E-06    32   0.580E-03    0.136E-03
DAV:   8    -0.196089661779E+02   -0.72478E-04   -0.16451E-05    32   0.132E-02    0.714E-04
DAV:   9    -0.196089858385E+02   -0.19661E-04   -0.12725E-06    32   0.367E-03    0.428E-04
DAV:  10    -0.196090036117E+02   -0.17773E-04   -0.12454E-06    32   0.411E-03    0.269E-04
DAV:  11    -0.196090105006E+02   -0.68889E-05   -0.23372E-07    64   0.252E-03
   7 F= -.19609011E+02 E0= -.19609011E+02  d E =-.294496E-01
 curvature:  -4.61 expect dE=-0.295E-01 dE for cont linesearch -0.106E-01
 ZBRENT: increasing intervall
 opt :  15.0404  next Energy=   -19.629327 (dE=-0.498E-01)
 bond charge predicted
       N       E                     dE             d eps       ncg     rms          rms(c)
DAV:   1    -0.196272341622E+02   -0.18231E-01   -0.18087E+00    32   0.574E+00    0.436E-01
DAV:   2    -0.196273857688E+02   -0.15161E-03   -0.35887E-02    32   0.763E-01    0.266E-01
DAV:   3    -0.196270390388E+02    0.34673E-03   -0.31415E-03    32   0.222E-01    0.143E-01
DAV:   4    -0.196268018435E+02    0.23720E-03   -0.78796E-04    32   0.128E-01    0.238E-02
DAV:   5    -0.196268541765E+02   -0.52333E-04   -0.10404E-04    64   0.435E-02    0.106E-02
DAV:   6    -0.196269862490E+02   -0.13207E-03   -0.37476E-05    32   0.245E-02    0.427E-03
DAV:   7    -0.196270683981E+02   -0.82149E-04   -0.90919E-06    32   0.108E-02    0.249E-03
DAV:   8    -0.196272500471E+02   -0.18165E-03   -0.38126E-05    32   0.207E-02    0.118E-03
DAV:   9    -0.196273090159E+02   -0.58969E-04   -0.56934E-06    32   0.776E-03    0.845E-04
DAV:  10    -0.196273568449E+02   -0.47829E-04   -0.44425E-06    32   0.750E-03    0.469E-04
DAV:  11    -0.196273718241E+02   -0.14979E-04   -0.65960E-07    64   0.431E-03    0.301E-04
DAV:  12    -0.196273770535E+02   -0.52294E-05   -0.17839E-07    32   0.217E-03
   8 F= -.19627377E+02 E0= -.19627377E+02  d E =-.478162E-01
 curvature:  -8.82 expect dE=-0.217E+00 dE for cont linesearch -0.163E-04
 trial: gam= 4.14378 g(F)=  0.246E-01 g(S)=  0.000E+00 ort = 0.108E-03 (trialstep = 0.199E+00)
 search vector abs. value=  0.135E+00
 bond charge predicted
       N       E                     dE             d eps       ncg     rms          rms(c)
DAV:   1    -0.196321325797E+02   -0.47608E-02   -0.27837E-02    32   0.892E-01    0.479E-02
DAV:   2    -0.196321410060E+02   -0.84263E-05   -0.37279E-04    64   0.100E-01    0.293E-02
DAV:   3    -0.196321325185E+02    0.84875E-05   -0.50796E-05    32   0.316E-02
   9 F= -.19632133E+02 E0= -.19632133E+02  d E =-.475546E-02
 ZBRENT: can't locate minimum, use default step
 trial-energy change:   -0.004755  1 .order   -0.004753   -0.004988   -0.004519
 step:   0.7950(harm=  2.1124)  dis= 0.00657  next Energy=   -19.653885 (dE=-0.265E-01)
 bond charge predicted
       N       E                     dE             d eps       ncg     rms          rms(c)
DAV:   1    -0.196435895493E+02   -0.11449E-01   -0.25043E-01    32   0.267E+00    0.146E-01
DAV:   2    -0.196435927720E+02   -0.32227E-05   -0.31378E-03    32   0.293E-01    0.855E-02
DAV:   3    -0.196435143022E+02    0.78470E-04   -0.58607E-04    32   0.106E-01    0.229E-02
DAV:   4    -0.196435150608E+02   -0.75859E-06   -0.59383E-05    64   0.316E-02
  10 F= -.19643515E+02 E0= -.19643515E+02  d E =-.161380E-01
 curvature:  -2.98 expect dE=-0.424E-01 dE for cont linesearch -0.535E-02
 ZBRENT: increasing intervall
 opt :   1.9874  next Energy=   -19.653494 (dE=-0.261E-01)
 bond charge predicted
       N       E                     dE             d eps       ncg     rms          rms(c)
DAV:   1    -0.196538487748E+02   -0.10334E-01   -0.99903E-01    32   0.534E+00    0.292E-01
DAV:   2    -0.196539392062E+02   -0.90431E-04   -0.12629E-02    32   0.581E-01    0.172E-01
DAV:   3    -0.196536290503E+02    0.31016E-03   -0.27371E-03    32   0.219E-01    0.517E-02
DAV:   4    -0.196536279261E+02    0.11241E-05   -0.37152E-04    64   0.718E-02    0.242E-02
DAV:   5    -0.196536524462E+02   -0.24520E-04   -0.55670E-05    32   0.282E-02    0.990E-03
DAV:   6    -0.196537067293E+02   -0.54283E-04   -0.14029E-05    32   0.161E-02    0.334E-03
DAV:   7    -0.196537999696E+02   -0.93240E-04   -0.16955E-05    32   0.146E-02    0.192E-03
DAV:   8    -0.196538500624E+02   -0.50093E-04   -0.63151E-06    48   0.842E-03    0.122E-03
DAV:   9    -0.196539168680E+02   -0.66806E-04   -0.15907E-05    32   0.129E-02    0.697E-04
DAV:  10    -0.196539267249E+02   -0.98569E-05   -0.42685E-07    64   0.272E-03
  11 F= -.19653927E+02 E0= -.19653927E+02  d E =-.265497E-01
 curvature:  -5.56 expect dE=-0.128E+00 dE for cont linesearch -0.124E-03
 trial: gam= 0.75187 g(F)=  0.230E-01 g(S)=  0.000E+00 ort = 0.173E-02 (trialstep = 0.556E+00)
 search vector abs. value=  0.102E+00
 bond charge predicted
       N       E                     dE             d eps       ncg     rms          rms(c)
DAV:   1    -0.196667472500E+02   -0.12830E-01   -0.10695E-01    32   0.136E+00    0.911E-02
DAV:   2    -0.196668035566E+02   -0.56307E-04   -0.11607E-03    32   0.154E-01    0.574E-02
DAV:   3    -0.196667889687E+02    0.14588E-04   -0.19016E-04    32   0.571E-02    0.111E-02
DAV:   4    -0.196667891601E+02   -0.19139E-06   -0.18974E-05    64   0.172E-02
  12 F= -.19666789E+02 E0= -.19666789E+02  d E =-.128624E-01
 ZBRENT: can't locate minimum, use default step
 trial-energy change:   -0.012862  1 .order   -0.012870   -0.013530   -0.012209
 step:   2.2259(harm=  5.7011)  dis= 0.00000  next Energy=   -19.723235 (dE=-0.693E-01)
 bond charge predicted
       N       E                     dE             d eps       ncg     rms          rms(c)
DAV:   1    -0.196972699000E+02   -0.30481E-01   -0.96906E-01    32   0.410E+00    0.280E-01
DAV:   2    -0.196978277613E+02   -0.55786E-03   -0.10370E-02    32   0.461E-01    0.174E-01
DAV:   3    -0.196976705983E+02    0.15716E-03   -0.15927E-03    48   0.169E-01    0.317E-02
DAV:   4    -0.196976896453E+02   -0.19047E-04   -0.14063E-04    64   0.454E-02    0.153E-02
DAV:   5    -0.196977497138E+02   -0.60068E-04   -0.32409E-05    32   0.228E-02    0.605E-03
DAV:   6    -0.196978080034E+02   -0.58290E-04   -0.98516E-06    64   0.119E-02    0.312E-03
DAV:   7    -0.196979369164E+02   -0.12891E-03   -0.26260E-05    32   0.185E-02    0.168E-03
DAV:   8    -0.196980098174E+02   -0.72901E-04   -0.10798E-05    48   0.109E-02    0.113E-03
DAV:   9    -0.196980763965E+02   -0.66579E-04   -0.11913E-05    32   0.114E-02    0.607E-04
DAV:  10    -0.196980928134E+02   -0.16417E-04   -0.70645E-07    64   0.408E-03    0.371E-04
DAV:  11    -0.196981033960E+02   -0.10583E-04   -0.40942E-07    32   0.279E-03    0.188E-04
DAV:  12    -0.196981073936E+02   -0.39975E-05   -0.37628E-07    32   0.229E-03
  13 F= -.19698107E+02 E0= -.19698107E+02  d E =-.441807E-01
 curvature:  -6.49 expect dE=-0.491E-01 dE for cont linesearch -0.157E-01
 ZBRENT: increasing intervall
 opt :   5.5647  next Energy=   -19.729662 (dE=-0.757E-01)
 bond charge predicted
       N       E                     dE             d eps       ncg     rms          rms(c)
DAV:   1    -0.197297821516E+02   -0.31679E-01   -0.38876E+00    32   0.821E+00    0.566E-01
DAV:   2    -0.197329609915E+02   -0.31788E-02   -0.47627E-02    64   0.971E-01    0.360E-01
DAV:   3    -0.197325869315E+02    0.37406E-03   -0.56058E-03    32   0.326E-01    0.523E-02
DAV:   4    -0.197326132295E+02   -0.26298E-04   -0.50821E-04    48   0.969E-02    0.274E-02
DAV:   5    -0.197327327023E+02   -0.11947E-03   -0.94449E-05    32   0.413E-02    0.109E-02
DAV:   6    -0.197328811415E+02   -0.14844E-03   -0.32194E-05    64   0.244E-02    0.557E-03
DAV:   7    -0.197331644171E+02   -0.28328E-03   -0.60581E-05    32   0.305E-02    0.270E-03
DAV:   8    -0.197333278582E+02   -0.16344E-03   -0.24919E-05    32   0.174E-02    0.207E-03
DAV:   9    -0.197334968188E+02   -0.16896E-03   -0.38767E-05    32   0.203E-02    0.117E-03
DAV:  10    -0.197335246370E+02   -0.27818E-04   -0.16655E-06    32   0.580E-03    0.701E-04
DAV:  11    -0.197335568103E+02   -0.32173E-04   -0.17511E-06    32   0.558E-03    0.324E-04
DAV:  12    -0.197335689410E+02   -0.12131E-04   -0.80325E-07    32   0.332E-03    0.293E-04
DAV:  13    -0.197335729223E+02   -0.39814E-05   -0.25402E-07    32   0.175E-03
  14 F= -.19733573E+02 E0= -.19733573E+02  d E =-.796462E-01
 curvature: -13.03 expect dE=-0.223E-01 dE for cont linesearch -0.477E-02
 ZBRENT: increasing intervall
 opt :  12.2423  next Energy=   -19.710267 (dE=-0.563E-01)
 bond charge predicted
       N       E                     dE             d eps       ncg     rms          rms(c)
DAV:   1    -0.197077069481E+02    0.25862E-01   -0.15048E+01    32   0.161E+01    0.112E+00
DAV:   2    -0.197257867662E+02   -0.18080E-01   -0.20099E-01    64   0.195E+00    0.726E-01
DAV:   3    -0.197265301081E+02   -0.74334E-03   -0.23490E-02    32   0.674E-01    0.135E-01
DAV:   4    -0.197265933844E+02   -0.63276E-04   -0.34903E-03    64   0.238E-01    0.579E-02
DAV:   5    -0.197267216264E+02   -0.12824E-03   -0.35428E-04    48   0.813E-02    0.280E-02
DAV:   6    -0.197271187416E+02   -0.39712E-03   -0.19152E-04    32   0.717E-02    0.108E-02
DAV:   7    -0.197277491450E+02   -0.63040E-03   -0.16240E-04    32   0.585E-02    0.610E-03
DAV:   8    -0.197282283672E+02   -0.47922E-03   -0.10119E-04    32   0.385E-02    0.394E-03
DAV:   9    -0.197286144718E+02   -0.38610E-03   -0.11774E-04    64   0.355E-02    0.200E-03
DAV:  10    -0.197287166228E+02   -0.10215E-03   -0.10793E-05    32   0.127E-02    0.122E-03
DAV:  11    -0.197287896612E+02   -0.73038E-04   -0.52716E-06    32   0.952E-03    0.686E-04
DAV:  12    -0.197288214782E+02   -0.31817E-04   -0.20544E-06    32   0.516E-03    0.354E-04
DAV:  13    -0.197288295731E+02   -0.80949E-05   -0.63194E-07    64   0.285E-03
  15 F= -.19728830E+02 E0= -.19728830E+02  d E =-.749028E-01
 curvature:  63.68 expect dE= 0.268E+01 dE for cont linesearch  0.347E-01
 ZBRENT: bracketing found
 ZBRENT: interpolating
 opt :   8.5732  next Energy=   -19.742753 (dE=-0.888E-01)
 bond charge predicted
       N       E                     dE             d eps       ncg     rms          rms(c)
DAV:   1    -0.197373802707E+02   -0.85588E-02   -0.47078E+00    32   0.895E+00    0.636E-01
DAV:   2    -0.197415779647E+02   -0.41977E-02   -0.61598E-02    64   0.109E+00    0.406E-01
DAV:   3    -0.197413309307E+02    0.24703E-03   -0.65166E-03    32   0.341E-01    0.848E-02
DAV:   4    -0.197413142527E+02    0.16678E-04   -0.11575E-03    64   0.132E-01    0.314E-02
DAV:   5    -0.197413809495E+02   -0.66697E-04   -0.12641E-04    32   0.472E-02    0.153E-02
DAV:   6    -0.197415516132E+02   -0.17066E-03   -0.63593E-05    32   0.354E-02    0.611E-03
DAV:   7    -0.197418199303E+02   -0.26832E-03   -0.57707E-05    32   0.298E-02    0.376E-03
DAV:   8    -0.197420031021E+02   -0.18317E-03   -0.32611E-05    64   0.199E-02    0.224E-03
DAV:   9    -0.197421718892E+02   -0.16879E-03   -0.38565E-05    32   0.207E-02    0.125E-03
DAV:  10    -0.197422122321E+02   -0.40343E-04   -0.29535E-06    32   0.670E-03    0.743E-04
DAV:  11    -0.197422493808E+02   -0.37149E-04   -0.23317E-06    32   0.626E-03    0.412E-04
DAV:  12    -0.197422643753E+02   -0.14994E-04   -0.12005E-06    32   0.412E-03    0.254E-04
DAV:  13    -0.197422676588E+02   -0.32835E-05   -0.11019E-07    32   0.122E-03
  16 F= -.19742268E+02 E0= -.19742268E+02  d E =-.883409E-01
 curvature: -16.86 expect dE=-0.192E+00 dE for cont linesearch -0.243E-05
 trial: gam= 0.90623 g(F)=  0.114E-01 g(S)=  0.000E+00 ort =-0.121E-03 (trialstep = 0.216E+01)
 search vector abs. value=  0.947E-01
 bond charge predicted
       N       E                     dE             d eps       ncg     rms          rms(c)
DAV:   1    -0.197444565010E+02   -0.21921E-02   -0.28028E+00    32   0.921E+00    0.526E-01
DAV:   2    -0.197443536012E+02    0.10290E-03   -0.43814E-02    64   0.104E+00    0.304E-01
DAV:   3    -0.197434108979E+02    0.94270E-03   -0.77889E-03    32   0.327E-01    0.130E-01
DAV:   4    -0.197432850147E+02    0.12588E-03   -0.16782E-03    32   0.159E-01    0.439E-02
DAV:   5    -0.197432877110E+02   -0.26963E-05   -0.15307E-04    32   0.556E-02    0.176E-02
DAV:   6    -0.197433346789E+02   -0.46968E-04   -0.39283E-05    32   0.266E-02    0.471E-03
DAV:   7    -0.197434003357E+02   -0.65657E-04   -0.11917E-05    32   0.127E-02    0.283E-03
DAV:   8    -0.197434777063E+02   -0.77371E-04   -0.18354E-05    32   0.150E-02    0.152E-03
DAV:   9    -0.197435402945E+02   -0.62588E-04   -0.13748E-05    32   0.116E-02    0.104E-03
DAV:  10    -0.197435609842E+02   -0.20690E-04   -0.30587E-06    32   0.551E-03    0.531E-04
DAV:  11    -0.197435782196E+02   -0.17235E-04   -0.93945E-07    32   0.425E-03    0.301E-04
DAV:  12    -0.197435834010E+02   -0.51814E-05   -0.26668E-07    32   0.227E-03
  17 F= -.19743583E+02 E0= -.19743583E+02  d E =-.131574E-02
 trial-energy change:   -0.001316  1 .order   -0.001779   -0.024384    0.020826
 step:   1.1318(harm=  1.1649)  dis= 0.00963  next Energy=   -19.748590 (dE=-0.632E-02)
 bond charge predicted
       N       E                     dE             d eps       ncg     rms          rms(c)
DAV:   1    -0.197487372906E+02   -0.51591E-02   -0.63704E-01    32   0.432E+00    0.247E-01
DAV:   2    -0.197487499001E+02   -0.12610E-04   -0.98305E-03    48   0.506E-01    0.143E-01
DAV:   3    -0.197484786568E+02    0.27124E-03   -0.14592E-03    32   0.151E-01    0.537E-02
DAV:   4    -0.197484579401E+02    0.20717E-04   -0.28382E-04    32   0.690E-02    0.195E-02
DAV:   5    -0.197484697937E+02   -0.11854E-04   -0.31829E-05    32   0.240E-02    0.761E-03
DAV:   6    -0.197484909266E+02   -0.21133E-04   -0.73371E-06    32   0.116E-02    0.218E-03
DAV:   7    -0.197485159870E+02   -0.25060E-04   -0.32785E-06    32   0.633E-03    0.135E-03
DAV:   8    -0.197485421646E+02   -0.26178E-04   -0.42580E-06    32   0.695E-03    0.732E-04
DAV:   9    -0.197485645537E+02   -0.22389E-04   -0.33938E-06    32   0.584E-03    0.519E-04
DAV:  10    -0.197485721192E+02   -0.75655E-05   -0.61838E-07    32   0.264E-03
  18 F= -.19748572E+02 E0= -.19748572E+02  d E =-.630446E-02
 curvature:  -4.88 expect dE=-0.711E-03 dE for cont linesearch -0.266E-07
 trial: gam= 0.08528 g(F)=  0.146E-03 g(S)=  0.000E+00 ort = 0.227E-04 (trialstep = 0.195E+01)
 search vector abs. value=  0.839E-03
 bond charge predicted
       N       E                     dE             d eps       ncg     rms          rms(c)
DAV:   1    -0.197487846909E+02   -0.22014E-03   -0.10935E-02    32   0.407E-01    0.325E-02
DAV:   2    -0.197487913735E+02   -0.66827E-05   -0.18647E-04    32   0.549E-02    0.210E-02
DAV:   3    -0.197487896271E+02    0.17464E-05   -0.14061E-05    32   0.148E-02
  19 F= -.19748790E+02 E0= -.19748790E+02  d E =-.217508E-03
 trial-energy change:   -0.000218  1 .order   -0.000210   -0.000288   -0.000132
 step:   3.6072(harm=  3.6072)  dis= 0.00000  next Energy=   -19.748838 (dE=-0.266E-03)
 bond charge predicted
       N       E                     dE             d eps       ncg     rms          rms(c)
DAV:   1    -0.197488383689E+02   -0.46995E-04   -0.76887E-03    32   0.343E-01    0.272E-02
DAV:   2    -0.197488421984E+02   -0.38296E-05   -0.12516E-04    32   0.453E-02    0.174E-02
DAV:   3    -0.197488410863E+02    0.11121E-05   -0.10267E-05    32   0.126E-02
  20 F= -.19748841E+02 E0= -.19748841E+02  d E =-.268967E-03
 curvature: -10.25 expect dE=-0.253E-03 dE for cont linesearch -0.820E-07
 trial: gam= 0.15757 g(F)=  0.247E-04 g(S)=  0.000E+00 ort =-0.259E-05 (trialstep = 0.228E+01)
 search vector abs. value=  0.447E-04
 bond charge predicted
       N       E                     dE             d eps       ncg     rms          rms(c)
DAV:   1    -0.197488600647E+02   -0.17866E-04   -0.32732E-03    32   0.320E-01    0.189E-02
DAV:   2    -0.197488589514E+02    0.11133E-05   -0.54231E-05    32   0.371E-02
  21 F= -.19748859E+02 E0= -.19748859E+02  d E =-.178651E-04
 trial-energy change:   -0.000018  1 .order   -0.000017   -0.000055    0.000021
 step:   1.6480(harm=  1.6480)  dis= 0.00034  next Energy=   -19.748861 (dE=-0.200E-04)
 bond charge predicted
       N       E                     dE             d eps       ncg     rms          rms(c)
DAV:   1    -0.197488628874E+02   -0.28227E-05   -0.30952E-04    32   0.943E-02    0.389E-03
DAV:   2    -0.197488641595E+02   -0.12721E-05   -0.69810E-06    32   0.127E-02
  22 F= -.19748864E+02 E0= -.19748864E+02  d E =-.230733E-04
 curvature:  -1.52 expect dE=-0.303E-04 dE for cont linesearch -0.251E-06
 trial: gam= 0.90249 g(F)=  0.200E-04 g(S)=  0.000E+00 ort =-0.272E-05 (trialstep = 0.187E+01)
 search vector abs. value=  0.515E-04
 bond charge predicted
       N       E                     dE             d eps       ncg     rms          rms(c)
DAV:   1    -0.197488831405E+02   -0.20253E-04   -0.65720E-04    32   0.102E-01    0.947E-03
DAV:   2    -0.197488835408E+02   -0.40027E-06   -0.16635E-05    32   0.152E-02
  23 F= -.19748884E+02 E0= -.19748884E+02  d E =-.193812E-04
 trial-energy change:   -0.000019  1 .order   -0.000019   -0.000033   -0.000005
 step:   2.2160(harm=  2.2160)  dis= 0.00095  next Energy=   -19.748884 (dE=-0.194E-04)
 bond charge predicted
       N       E                     dE             d eps       ncg     rms          rms(c)
DAV:   1    -0.197488844158E+02   -0.12753E-05   -0.22282E-05    32   0.194E-02    0.475E-03
DAV:   2    -0.197488849506E+02   -0.53486E-06   -0.98928E-07    32   0.344E-03
  24 F= -.19748885E+02 E0= -.19748885E+02  d E =-.207911E-04
 curvature:  -3.25 expect dE=-0.195E-04 dE for cont linesearch -0.636E-08
 trial: gam= 0.01657 g(F)=  0.601E-05 g(S)=  0.000E+00 ort = 0.317E-06 (trialstep = 0.194E+01)
 search vector abs. value=  0.603E-05
 bond charge predicted
       N       E                     dE             d eps       ncg     rms          rms(c)
DAV:   1    -0.197488883089E+02   -0.38932E-05   -0.73099E-04    32   0.145E-01    0.923E-03
DAV:   2    -0.197488878757E+02    0.43322E-06   -0.12764E-05    32   0.169E-02
  25 F= -.19748888E+02 E0= -.19748888E+02  d E =-.292511E-05
 trial-energy change:   -0.000003  1 .order   -0.000002   -0.000012    0.000007
 step:   1.2150(harm=  1.2150)  dis= 0.00025  next Energy=   -19.748889 (dE=-0.365E-05)
 bond charge predicted
       N       E                     dE             d eps       ncg     rms          rms(c)
DAV:   1    -0.197488896610E+02   -0.13521E-05   -0.11840E-04    32   0.568E-02    0.244E-03
DAV:   2    -0.197488900305E+02   -0.36946E-06   -0.22202E-06    32   0.730E-03
  26 F= -.19748890E+02 E0= -.19748890E+02  d E =-.507987E-05
 curvature:  -0.61 expect dE=-0.108E-05 dE for cont linesearch -0.648E-07
 trial: gam= 0.42935 g(F)=  0.177E-05 g(S)=  0.000E+00 ort =-0.801E-06 (trialstep = 0.180E+01)
 search vector abs. value=  0.219E-05
 reached required accuracy - stopping structural energy minimisation
 writing wavefunctions
