 running on   15 total cores
 distrk:  each k-point on   15 cores,    1 groups
 distr:  one band on    1 cores,   15 groups
 using from now: INCAR     
 vasp.5.4.1 24Jun15 (build Oct 26 2018 17:15:27) complex                        
  
 POSCAR found type information on POSCAR  Pt O 
 POSCAR found :  2 types and      13 ions
 scaLAPACK will be used

 ----------------------------------------------------------------------------- 
|                                                                             |
|           W    W    AA    RRRRR   N    N  II  N    N   GGGG   !!!           |
|           W    W   A  A   R    R  NN   N  II  NN   N  G    G  !!!           |
|           W    W  A    A  R    R  N N  N  II  N N  N  G       !!!           |
|           W WW W  AAAAAA  RRRRR   N  N N  II  N  N N  G  GGG   !            |
|           WW  WW  A    A  R   R   N   NN  II  N   NN  G    G                |
|           W    W  A    A  R    R  N    N  II  N    N   GGGG   !!!           |
|                                                                             |
|      For optimal performance we recommend to set                            |
|        NCORE= 4 - approx SQRT( number of cores)                             |
|      NCORE specifies how many cores store one orbital (NPAR=cpu/NCORE).     |
|      This setting can  greatly improve the performance of VASP for DFT.     |
|      The default, NPAR=number of cores might be grossly inefficient         |
|      on modern multi-core architectures or massively parallel machines.     |
|      Do your own testing !!!!                                               |
|      Unfortunately you need to use the default for GW and RPA calculations. |
|      (for HF NCORE is supported but not extensively tested yet)             |
|                                                                             |
 ----------------------------------------------------------------------------- 

 LDA part: xc-table for Ceperly-Alder, standard interpolation
 POSCAR, INCAR and KPOINTS ok, starting setup
 WARNING: small aliasing (wrap around) errors must be expected
 FFT: planning ...
 WAVECAR not read
 WARNING: random wavefunctions but no delay for mixing, default for NELMDL
 entering main loop
       N       E                     dE             d eps       ncg     rms          rms(c)
DAV:   1     0.131155256953E+04    0.13116E+04   -0.51501E+04  6150   0.142E+03
DAV:   2     0.884240905535E+02   -0.12231E+04   -0.11429E+04  6150   0.480E+02
DAV:   3    -0.706169379580E+02   -0.15904E+03   -0.14920E+03  8550   0.135E+02
DAV:   4    -0.808330089768E+02   -0.10216E+02   -0.97665E+01  7965   0.448E+01
DAV:   5    -0.811299384866E+02   -0.29693E+00   -0.29371E+00  8445   0.621E+00    0.174E+01
RMM:   6    -0.104180447185E+03   -0.23051E+02   -0.22374E+01  6224   0.239E+01    0.336E+01
RMM:   7    -0.109599307339E+03   -0.54189E+01   -0.34499E+01  6893   0.177E+01    0.302E+01
RMM:   8    -0.784574506020E+02    0.31142E+02   -0.95754E+00  6479   0.116E+01    0.149E+01
RMM:   9    -0.743923659298E+02    0.40651E+01   -0.38892E+00  6623   0.728E+00    0.767E+00
RMM:  10    -0.737347315049E+02    0.65763E+00   -0.97325E-01  6467   0.387E+00    0.500E+00
RMM:  11    -0.735194545799E+02    0.21528E+00   -0.13141E-01  6601   0.148E+00    0.349E+00
RMM:  12    -0.734408823292E+02    0.78572E-01   -0.99850E-02  6867   0.110E+00    0.207E+00
RMM:  13    -0.733868294256E+02    0.54053E-01   -0.89697E-02  6396   0.125E+00    0.123E+00
RMM:  14    -0.733752661473E+02    0.11563E-01   -0.37340E-02  6614   0.831E-01    0.784E-01
RMM:  15    -0.733696105340E+02    0.56556E-02   -0.96731E-03  6770   0.368E-01    0.211E-01
RMM:  16    -0.733692403768E+02    0.37016E-03   -0.21276E-03  6366   0.216E-01    0.128E-01
RMM:  17    -0.733697845768E+02   -0.54420E-03   -0.13444E-03  6519   0.145E-01    0.181E-01
RMM:  18    -0.733696225306E+02    0.16205E-03   -0.39240E-04  6337   0.772E-02    0.106E-01
RMM:  19    -0.733696527177E+02   -0.30187E-04   -0.16844E-04  6125   0.540E-02    0.507E-02
RMM:  20    -0.733699546797E+02   -0.30196E-03   -0.10575E-04  5564   0.421E-02    0.136E-01
RMM:  21    -0.733700288989E+02   -0.74219E-04   -0.21605E-04  5766   0.507E-02    0.467E-02
RMM:  22    -0.733701603299E+02   -0.13143E-03   -0.61685E-05  4732   0.259E-02    0.457E-02
RMM:  23    -0.733703257607E+02   -0.16543E-03   -0.64943E-05  4685   0.262E-02    0.306E-02
RMM:  24    -0.733704191661E+02   -0.93405E-04   -0.42564E-05  4259   0.185E-02    0.161E-02
RMM:  25    -0.733704644092E+02   -0.45243E-04   -0.18636E-05  3695   0.134E-02    0.106E-02
RMM:  26    -0.733705062593E+02   -0.41850E-04   -0.98850E-06  3489   0.117E-02    0.151E-02
RMM:  27    -0.733705284801E+02   -0.22221E-04   -0.41119E-06  3221   0.891E-03    0.202E-02
RMM:  28    -0.733705309841E+02   -0.25040E-05   -0.22591E-06  3162   0.718E-03
   1 F= -.73370531E+02 E0= -.73302725E+02  d E =-.733705E+02
 curvature:   0.00 expect dE= 0.000E+00 dE for cont linesearch  0.000E+00
 trial: gam= 0.00000 g(F)=  0.168E+00 g(S)=  0.000E+00 ort = 0.000E+00 (trialstep = 0.100E+01)
 search vector abs. value=  0.168E+00
 bond charge predicted
       N       E                     dE             d eps       ncg     rms          rms(c)
DAV:   1    -0.735210602823E+02   -0.15053E+00   -0.87851E+00  6270   0.113E+01    0.437E-01
RMM:   2    -0.736474514482E+02   -0.12639E+00   -0.19540E-01  6227   0.158E+00    0.315E+00
RMM:   3    -0.735411654107E+02    0.10629E+00   -0.18349E-02  6533   0.586E-01    0.457E-01
RMM:   4    -0.735416768023E+02   -0.51139E-03   -0.64891E-03  6800   0.316E-01    0.534E-01
RMM:   5    -0.735383686965E+02    0.33081E-02   -0.17078E-03  6297   0.156E-01    0.386E-01
RMM:   6    -0.735373020132E+02    0.10667E-02   -0.17478E-03  6224   0.165E-01    0.187E-01
RMM:   7    -0.735368441752E+02    0.45784E-03   -0.10275E-03  6606   0.118E-01    0.972E-02
RMM:   8    -0.735367466220E+02    0.97553E-04   -0.17044E-04  6185   0.626E-02    0.536E-02
RMM:   9    -0.735367181119E+02    0.28510E-04   -0.31166E-05  3838   0.265E-02    0.246E-02
RMM:  10    -0.735367310442E+02   -0.12932E-04   -0.28028E-05  3593   0.262E-02    0.199E-02
RMM:  11    -0.735367444955E+02   -0.13451E-04   -0.14987E-05  3346   0.228E-02    0.976E-03
RMM:  12    -0.735367717489E+02   -0.27253E-04   -0.53568E-06  3323   0.119E-02    0.770E-03
RMM:  13    -0.735367898894E+02   -0.18141E-04   -0.30775E-06  3247   0.786E-03    0.582E-03
RMM:  14    -0.735368154008E+02   -0.25511E-04   -0.49569E-06  3061   0.687E-03    0.495E-03
RMM:  15    -0.735368314114E+02   -0.16011E-04   -0.39953E-06  2906   0.671E-03    0.244E-03
RMM:  16    -0.735368386143E+02   -0.72029E-05   -0.24988E-06  2660   0.610E-03
   2 F= -.73536839E+02 E0= -.73470251E+02  d E =-.166308E+00
 ZBRENT: can't locate minimum, use default step
 trial-energy change:   -0.166308  1 .order   -0.165938   -0.168473   -0.163404
 step:   4.0000(harm= 33.2353)  dis= 0.03989  next Energy=   -76.170150 (dE=-0.280E+01)
 bond charge predicted
       N       E                     dE             d eps       ncg     rms          rms(c)
DAV:   1    -0.738372870586E+02   -0.30046E+00   -0.79340E+01  6195   0.343E+01    0.140E+00
RMM:   2    -0.751322345800E+02   -0.12949E+01   -0.20971E+00  6235   0.566E+00    0.920E+00
RMM:   3    -0.740736556471E+02    0.10586E+01   -0.21287E-01  6680   0.188E+00    0.198E+00
RMM:   4    -0.740112355852E+02    0.62420E-01   -0.58673E-02  6600   0.996E-01    0.988E-01
RMM:   5    -0.740094856607E+02    0.17499E-02   -0.15398E-02  6325   0.466E-01    0.127E+00
RMM:   6    -0.739988659098E+02    0.10620E-01   -0.13166E-02  6188   0.484E-01    0.779E-01
RMM:   7    -0.739945481746E+02    0.43177E-02   -0.17368E-02  6658   0.458E-01    0.481E-01
RMM:   8    -0.739922147982E+02    0.23334E-02   -0.27445E-03  6323   0.240E-01    0.272E-01
RMM:   9    -0.739913017873E+02    0.91301E-03   -0.42958E-04  6212   0.967E-02    0.142E-01
RMM:  10    -0.739908625519E+02    0.43924E-03   -0.10642E-03  6176   0.133E-01    0.444E-02
RMM:  11    -0.739908555288E+02    0.70231E-05   -0.10049E-04  6048   0.427E-02    0.404E-02
RMM:  12    -0.739908634327E+02   -0.79039E-05   -0.35863E-05  4168   0.228E-02
   3 F= -.73990863E+02 E0= -.73928115E+02  d E =-.620332E+00
 curvature:  -2.95 expect dE=-0.340E+00 dE for cont linesearch -0.332E+00
 ZBRENT: increasing intervall
 opt :  10.0000  next Energy=   -74.662992 (dE=-0.129E+01)
 bond charge predicted
       N       E                     dE             d eps       ncg     rms          rms(c)
DAV:   1    -0.737575400369E+02    0.23332E+00   -0.31656E+02  6150   0.693E+01    0.314E+00
RMM:   2    -0.794137253420E+02   -0.56562E+01   -0.11725E+01  6269   0.135E+01    0.151E+01
RMM:   3    -0.751118639200E+02    0.43019E+01   -0.12725E+00  6731   0.431E+00    0.541E+00
RMM:   4    -0.745979147720E+02    0.51395E+00   -0.28153E-01  6293   0.232E+00    0.162E+00
RMM:   5    -0.746279666366E+02   -0.30052E-01   -0.73351E-02  6642   0.980E-01    0.268E+00
RMM:   6    -0.745601129202E+02    0.67854E-01   -0.64363E-02  6228   0.114E+00    0.130E+00
RMM:   7    -0.745697635773E+02   -0.96507E-02   -0.98938E-02  6535   0.120E+00    0.138E+00
RMM:   8    -0.745506283344E+02    0.19135E-01   -0.23579E-02  6482   0.642E-01    0.944E-01
RMM:   9    -0.745389524017E+02    0.11676E-01   -0.32646E-03  6308   0.239E-01    0.410E-01
RMM:  10    -0.745361795990E+02    0.27728E-02   -0.40204E-03  6216   0.277E-01    0.145E-01
RMM:  11    -0.745353833981E+02    0.79620E-03   -0.17287E-03  6359   0.177E-01    0.885E-02
RMM:  12    -0.745350763967E+02    0.30700E-03   -0.23379E-04  6700   0.441E-02    0.428E-02
RMM:  13    -0.745347925378E+02    0.28386E-03   -0.87020E-05  5292   0.315E-02    0.223E-02
RMM:  14    -0.745347495371E+02    0.43001E-04   -0.28205E-05  3896   0.200E-02    0.228E-02
RMM:  15    -0.745347683067E+02   -0.18770E-04   -0.97173E-06  3451   0.156E-02    0.192E-02
RMM:  16    -0.745351636668E+02   -0.39536E-03   -0.86692E-05  5018   0.269E-02    0.578E-03
RMM:  17    -0.745353361639E+02   -0.17250E-03   -0.29834E-05  3976   0.139E-02    0.563E-03
RMM:  18    -0.745354561174E+02   -0.11995E-03   -0.21134E-05  3733   0.135E-02    0.355E-02
RMM:  19    -0.745354593798E+02   -0.32624E-05   -0.52606E-06  3357   0.118E-02
   4 F= -.74535459E+02 E0= -.74479325E+02  d E =-.116493E+01
 curvature:  -5.97 expect dE=-0.216E+00 dE for cont linesearch -0.263E-01
 ZBRENT: extrapolating
 opt :  11.4781  next Energy=   -74.555577 (dE=-0.119E+01)
 bond charge predicted
       N       E                     dE             d eps       ncg     rms          rms(c)
DAV:   1    -0.745038810774E+02    0.31575E-01   -0.19681E+01  6150   0.171E+01    0.758E-01
RMM:   2    -0.748108571170E+02   -0.30698E+00   -0.53951E-01  6234   0.289E+00    0.417E+00
RMM:   3    -0.745583909915E+02    0.25247E+00   -0.52044E-02  6616   0.971E-01    0.806E-01
RMM:   4    -0.745548800515E+02    0.35109E-02   -0.18419E-02  6399   0.581E-01    0.736E-01
RMM:   5    -0.745476461435E+02    0.72339E-02   -0.44043E-03  6230   0.268E-01    0.457E-01
RMM:   6    -0.745459361732E+02    0.17100E-02   -0.41110E-03  6321   0.254E-01    0.285E-01
RMM:   7    -0.745449423169E+02    0.99386E-03   -0.20716E-03  6328   0.184E-01    0.174E-01
RMM:   8    -0.745446193346E+02    0.32298E-03   -0.43579E-04  6869   0.793E-02    0.115E-01
RMM:   9    -0.745444501321E+02    0.16920E-03   -0.90716E-05  5888   0.392E-02    0.349E-02
RMM:  10    -0.745445088373E+02   -0.58705E-04   -0.81279E-05  5656   0.339E-02    0.537E-02
RMM:  11    -0.745445140503E+02   -0.52130E-05   -0.16781E-05  3464   0.220E-02
   5 F= -.74544514E+02 E0= -.74489293E+02  d E =-.117398E+01
 curvature:  -4.57 expect dE=-0.256E+00 dE for cont linesearch -0.785E-02
 ZBRENT: bracketing found
 ZBRENT: interpolating
 opt :  10.9097  next Energy=   -74.549347 (dE=-0.118E+01)
 bond charge predicted
       N       E                     dE             d eps       ncg     rms          rms(c)
DAV:   1    -0.745430885277E+02    0.14203E-02   -0.29033E+00  6180   0.639E+00    0.295E-01
RMM:   2    -0.745643898661E+02   -0.21301E-01   -0.71411E-02  6229   0.105E+00    0.982E-01
RMM:   3    -0.745513882263E+02    0.13002E-01   -0.64047E-03  6768   0.362E-01    0.345E-01
RMM:   4    -0.745513675481E+02    0.20678E-04   -0.31332E-03  6441   0.231E-01    0.347E-01
RMM:   5    -0.745492839946E+02    0.20836E-02   -0.72431E-04  6195   0.108E-01    0.135E-01
RMM:   6    -0.745491620199E+02    0.12197E-03   -0.60404E-04  6610   0.955E-02    0.805E-02
RMM:   7    -0.745491393442E+02    0.22676E-04   -0.29033E-04  6210   0.728E-02    0.787E-02
RMM:   8    -0.745490562959E+02    0.83048E-04   -0.38391E-05  4162   0.255E-02    0.414E-02
RMM:   9    -0.745490355875E+02    0.20708E-04   -0.16184E-05  3364   0.250E-02    0.167E-02
RMM:  10    -0.745490320724E+02    0.35151E-05   -0.81533E-06  3261   0.165E-02
   6 F= -.74549032E+02 E0= -.74493522E+02  d E =-.117850E+01
 curvature:  -2.82 expect dE=-0.124E+00 dE for cont linesearch -0.217E-04
 trial: gam= 0.25506 g(F)=  0.441E-01 g(S)=  0.000E+00 ort = 0.114E-02 (trialstep = 0.298E+01)
 search vector abs. value=  0.557E-01
 bond charge predicted
       N       E                     dE             d eps       ncg     rms          rms(c)
DAV:   1    -0.746153089074E+02   -0.66273E-01   -0.26686E+01  6150   0.184E+01    0.857E-01
RMM:   2    -0.747032832648E+02   -0.87974E-01   -0.54113E-01  6198   0.350E+00    0.155E+00
RMM:   3    -0.747353231230E+02   -0.32040E-01   -0.84764E-02  8121   0.107E+00    0.216E+00
RMM:   4    -0.746717625080E+02    0.63561E-01   -0.22392E-02  6470   0.593E-01    0.774E-01
RMM:   5    -0.746635919945E+02    0.81705E-02   -0.64713E-03  6185   0.368E-01    0.382E-01
RMM:   6    -0.746622379765E+02    0.13540E-02   -0.33747E-03  6569   0.203E-01    0.256E-01
RMM:   7    -0.746625448416E+02   -0.30687E-03   -0.37904E-03  6279   0.252E-01    0.258E-01
RMM:   8    -0.746615107599E+02    0.10341E-02   -0.14045E-03  6190   0.155E-01    0.108E-01
RMM:   9    -0.746613462288E+02    0.16453E-03   -0.21594E-04  6245   0.650E-02    0.461E-02
RMM:  10    -0.746613076951E+02    0.38534E-04   -0.51125E-05  4821   0.328E-02    0.162E-02
RMM:  11    -0.746613041827E+02    0.35124E-05   -0.25893E-05  3682   0.203E-02
   7 F= -.74661304E+02 E0= -.74605550E+02  d E =-.112272E+00
 trial-energy change:   -0.112272  1 .order   -0.112926   -0.132402   -0.093451
 step:  10.1362(harm= 10.1362)  dis= 0.09533  next Energy=   -74.774061 (dE=-0.225E+00)
 bond charge predicted
       N       E                     dE             d eps       ncg     rms          rms(c)
DAV:   1    -0.744371030533E+02    0.22420E+00   -0.15362E+02  6150   0.447E+01    0.212E+00
RMM:   2    -0.748081046415E+02   -0.37100E+00   -0.38924E+00  6188   0.103E+01    0.190E+00
RMM:   3    -0.755485624278E+02   -0.74046E+00   -0.67988E-01  8187   0.278E+00    0.617E+00
RMM:   4    -0.748273343280E+02    0.72123E+00   -0.16931E-01  6604   0.133E+00    0.166E+00
RMM:   5    -0.747918382216E+02    0.35496E-01   -0.32755E-02  6332   0.840E-01    0.944E-01
RMM:   6    -0.747849853894E+02    0.68528E-02   -0.17296E-02  6821   0.476E-01    0.715E-01
RMM:   7    -0.747844381474E+02    0.54724E-03   -0.26216E-02  6222   0.675E-01    0.646E-01
RMM:   8    -0.747795765980E+02    0.48615E-02   -0.14627E-02  6284   0.494E-01    0.373E-01
RMM:   9    -0.747776970487E+02    0.18795E-02   -0.29437E-03  6303   0.235E-01    0.174E-01
RMM:  10    -0.747771325019E+02    0.56455E-03   -0.66337E-04  6180   0.115E-01    0.589E-02
RMM:  11    -0.747770561684E+02    0.76334E-04   -0.60269E-04  6221   0.990E-02    0.198E-02
RMM:  12    -0.747770765798E+02   -0.20411E-04   -0.62041E-05  5037   0.341E-02    0.109E-02
RMM:  13    -0.747770911095E+02   -0.14530E-04   -0.12123E-05  3472   0.182E-02    0.677E-03
RMM:  14    -0.747771018345E+02   -0.10725E-04   -0.54495E-06  3446   0.122E-02    0.302E-03
RMM:  15    -0.747771083561E+02   -0.65216E-05   -0.27988E-06  3365   0.838E-03
   8 F= -.74777108E+02 E0= -.74719930E+02  d E =-.228076E+00
 curvature:  -6.35 expect dE=-0.279E-01 dE for cont linesearch -0.142E-03
 ZBRENT: extrapolating
 opt :  10.4003  next Energy=   -74.777256 (dE=-0.228E+00)
 bond charge predicted
       N       E                     dE             d eps       ncg     rms          rms(c)
DAV:   1    -0.747769388807E+02    0.16295E-03   -0.20863E-01  6990   0.163E+00    0.762E-02
RMM:   2    -0.747773400567E+02   -0.40118E-03   -0.40623E-03  6234   0.269E-01    0.649E-02
RMM:   3    -0.747782172488E+02   -0.87719E-03   -0.52034E-04  7215   0.954E-02    0.232E-01
RMM:   4    -0.747773138638E+02    0.90338E-03   -0.15589E-04  6450   0.458E-02    0.480E-02
RMM:   5    -0.747772893999E+02    0.24464E-04   -0.46138E-05  4427   0.310E-02    0.345E-02
RMM:   6    -0.747772773511E+02    0.12049E-04   -0.19836E-05  3366   0.250E-02    0.193E-02
RMM:   7    -0.747772819576E+02   -0.46064E-05   -0.26436E-05  3553   0.281E-02
   9 F= -.74777282E+02 E0= -.74720035E+02  d E =-.228250E+00
 curvature:  -6.59 expect dE=-0.309E-01 dE for cont linesearch -0.191E-06
 trial: gam= 0.10854 g(F)=  0.470E-02 g(S)=  0.000E+00 ort = 0.402E-04 (trialstep = 0.447E+01)
 search vector abs. value=  0.536E-02
 bond charge predicted
       N       E                     dE             d eps       ncg     rms          rms(c)
DAV:   1    -0.747856634906E+02   -0.83861E-02   -0.59186E+00  6150   0.849E+00    0.309E-01
RMM:   2    -0.747957268175E+02   -0.10063E-01   -0.10451E-01  6191   0.153E+00    0.223E-01
RMM:   3    -0.747970539962E+02   -0.13272E-02   -0.12171E-02  7606   0.509E-01    0.338E-01
RMM:   4    -0.747974127867E+02   -0.35879E-03   -0.19458E-03  7441   0.157E-01    0.349E-01
RMM:   5    -0.747956555880E+02    0.17572E-02   -0.57556E-04  6661   0.840E-02    0.165E-01
RMM:   6    -0.747953017942E+02    0.35379E-03   -0.30989E-04  6429   0.656E-02    0.100E-01
RMM:   7    -0.747953072664E+02   -0.54721E-05   -0.78711E-04  6301   0.102E-01    0.102E-01
RMM:   8    -0.747951642942E+02    0.14297E-03   -0.47964E-04  6476   0.846E-02    0.393E-02
RMM:   9    -0.747951357649E+02    0.28529E-04   -0.58314E-05  5191   0.356E-02    0.205E-02
RMM:  10    -0.747951225664E+02    0.13198E-04   -0.19729E-05  3369   0.199E-02    0.107E-02
RMM:  11    -0.747951216653E+02    0.90110E-06   -0.27251E-05  3536   0.182E-02
  10 F= -.74795122E+02 E0= -.74737596E+02  d E =-.178397E-01
 trial-energy change:   -0.017840  1 .order   -0.017795   -0.021000   -0.014589
 step:  13.4786(harm= 14.6290)  dis= 0.04317  next Energy=   -74.810216 (dE=-0.329E-01)
 bond charge predicted
       N       E                     dE             d eps       ncg     rms          rms(c)
DAV:   1    -0.747681089288E+02    0.27014E-01   -0.24132E+01  6150   0.172E+01    0.648E-01
RMM:   2    -0.748129897493E+02   -0.44881E-01   -0.47222E-01  6188   0.364E+00    0.478E-01
RMM:   3    -0.748887188220E+02   -0.75729E-01   -0.73717E-02  8455   0.957E-01    0.202E+00
RMM:   4    -0.748148320924E+02    0.73887E-01   -0.14580E-02  6673   0.401E-01    0.371E-01
RMM:   5    -0.748127841935E+02    0.20479E-02   -0.22458E-03  6393   0.225E-01    0.239E-01
RMM:   6    -0.748128254460E+02   -0.41252E-04   -0.22769E-03  6759   0.157E-01    0.281E-01
RMM:   7    -0.748120190871E+02    0.80636E-03   -0.33798E-03  6209   0.234E-01    0.166E-01
RMM:   8    -0.748116654414E+02    0.35365E-03   -0.14733E-03  6841   0.148E-01    0.645E-02
RMM:   9    -0.748115966885E+02    0.68753E-04   -0.17035E-04  6363   0.555E-02    0.510E-02
RMM:  10    -0.748115458633E+02    0.50825E-04   -0.54902E-05  5060   0.299E-02    0.272E-02
RMM:  11    -0.748115277749E+02    0.18088E-04   -0.15377E-04  6070   0.433E-02    0.875E-03
RMM:  12    -0.748115319635E+02   -0.41886E-05   -0.11128E-05  3361   0.225E-02
  11 F= -.74811532E+02 E0= -.74753530E+02  d E =-.342500E-01
 curvature:  -8.23 expect dE=-0.805E-02 dE for cont linesearch -0.232E-03
 ZBRENT: extrapolating
 opt :  14.6965  next Energy=   -74.811769 (dE=-0.345E-01)
 bond charge predicted
       N       E                     dE             d eps       ncg     rms          rms(c)
DAV:   1    -0.748111247118E+02    0.40306E-03   -0.44211E-01  6360   0.232E+00    0.837E-02
RMM:   2    -0.748118496624E+02   -0.72495E-03   -0.75822E-03  6191   0.388E-01    0.557E-02
RMM:   3    -0.748121091442E+02   -0.25948E-03   -0.70639E-04  7041   0.135E-01    0.129E-01
RMM:   4    -0.748119161606E+02    0.19298E-03   -0.14716E-04  6281   0.390E-02    0.751E-02
RMM:   5    -0.748118289145E+02    0.87246E-04   -0.42578E-05  4333   0.330E-02    0.354E-02
RMM:   6    -0.748118168922E+02    0.12022E-04   -0.23759E-05  3474   0.241E-02    0.270E-02
RMM:   7    -0.748118167080E+02    0.18416E-06   -0.67227E-05  5707   0.376E-02
  12 F= -.74811817E+02 E0= -.74753769E+02  d E =-.345348E-01
 curvature:  -8.40 expect dE=-0.986E-02 dE for cont linesearch -0.313E-06
 trial: gam= 0.28962 g(F)=  0.117E-02 g(S)=  0.000E+00 ort = 0.141E-04 (trialstep = 0.651E+01)
 search vector abs. value=  0.163E-02
 bond charge predicted
       N       E                     dE             d eps       ncg     rms          rms(c)
DAV:   1    -0.748124046327E+02   -0.58774E-03   -0.37986E+00  6150   0.662E+00    0.282E-01
RMM:   2    -0.748220360869E+02   -0.96315E-02   -0.64390E-02  6183   0.116E+00    0.493E-01
RMM:   3    -0.748276234669E+02   -0.55874E-02   -0.10881E-02  8166   0.410E-01    0.739E-01
RMM:   4    -0.748188960757E+02    0.87274E-02   -0.27441E-03  6488   0.198E-01    0.212E-01
RMM:   5    -0.748182396889E+02    0.65639E-03   -0.82216E-04  6392   0.116E-01    0.126E-01
RMM:   6    -0.748180470615E+02    0.19263E-03   -0.35668E-04  6337   0.707E-02    0.792E-02
RMM:   7    -0.748181225673E+02   -0.75506E-04   -0.58872E-04  6312   0.943E-02    0.949E-02
RMM:   8    -0.748179783839E+02    0.14418E-03   -0.25832E-04  6276   0.638E-02    0.300E-02
RMM:   9    -0.748179645191E+02    0.13865E-04   -0.30900E-05  3838   0.281E-02    0.185E-02
RMM:  10    -0.748179554234E+02    0.90958E-05   -0.17837E-05  3296   0.238E-02
  13 F= -.74817955E+02 E0= -.74759623E+02  d E =-.613872E-02
 trial-energy change:   -0.006139  1 .order   -0.006119   -0.007675   -0.004563
 step:  16.0601(harm= 16.0601)  dis= 0.01860  next Energy=   -74.821281 (dE=-0.946E-02)
 bond charge predicted
       N       E                     dE             d eps       ncg     rms          rms(c)
DAV:   1    -0.748091943704E+02    0.87701E-02   -0.81670E+00  6150   0.971E+00    0.414E-01
RMM:   2    -0.748267936001E+02   -0.17599E-01   -0.14307E-01  6187   0.182E+00    0.573E-01
RMM:   3    -0.748491582666E+02   -0.22365E-01   -0.26124E-02  8336   0.594E-01    0.125E+00
RMM:   4    -0.748238015086E+02    0.25357E-01   -0.62780E-03  6509   0.297E-01    0.314E-01
RMM:   5    -0.748223193370E+02    0.14822E-02   -0.18748E-03  6475   0.175E-01    0.189E-01
RMM:   6    -0.748218379192E+02    0.48142E-03   -0.71552E-04  6400   0.983E-02    0.114E-01
RMM:   7    -0.748220342938E+02   -0.19637E-03   -0.15172E-03  6333   0.154E-01    0.141E-01
RMM:   8    -0.748216982128E+02    0.33608E-03   -0.54471E-04  6397   0.937E-02    0.415E-02
RMM:   9    -0.748216758574E+02    0.22355E-04   -0.76380E-05  5599   0.400E-02    0.296E-02
RMM:  10    -0.748216528391E+02    0.23018E-04   -0.35210E-05  3954   0.252E-02    0.106E-02
RMM:  11    -0.748216508584E+02    0.19807E-05   -0.16389E-05  3296   0.194E-02
  14 F= -.74821651E+02 E0= -.74762912E+02  d E =-.983415E-02
 curvature: -11.12 expect dE=-0.188E-01 dE for cont linesearch -0.198E-04
 trial: gam= 1.37008 g(F)=  0.169E-02 g(S)=  0.000E+00 ort = 0.539E-04 (trialstep = 0.280E+01)
 search vector abs. value=  0.491E-02
 bond charge predicted
       N       E                     dE             d eps       ncg     rms          rms(c)
DAV:   1    -0.748225616864E+02   -0.90885E-03   -0.21352E+00  6150   0.524E+00    0.204E-01
RMM:   2    -0.748274751355E+02   -0.49134E-02   -0.41211E-02  6186   0.902E-01    0.265E-01
RMM:   3    -0.748314514478E+02   -0.39763E-02   -0.42675E-03  7902   0.270E-01    0.531E-01
RMM:   4    -0.748263805904E+02    0.50709E-02   -0.95930E-04  6501   0.106E-01    0.912E-02
RMM:   5    -0.748262277518E+02    0.15284E-03   -0.18147E-04  6196   0.603E-02    0.603E-02
RMM:   6    -0.748263882709E+02   -0.16052E-03   -0.35489E-04  6445   0.738E-02    0.121E-01
RMM:   7    -0.748261712140E+02    0.21706E-03   -0.26093E-04  6386   0.594E-02    0.303E-02
RMM:   8    -0.748261559599E+02    0.15254E-04   -0.27488E-05  3703   0.300E-02    0.186E-02
RMM:   9    -0.748261488893E+02    0.70706E-05   -0.93784E-06  3220   0.180E-02
  15 F= -.74826149E+02 E0= -.74767438E+02  d E =-.449803E-02
 trial-energy change:   -0.004498  1 .order   -0.004424   -0.004954   -0.003895
 step:   7.6266(harm= 13.1071)  dis= 0.00408  next Energy=   -74.829878 (dE=-0.823E-02)
 bond charge predicted
       N       E                     dE             d eps       ncg     rms          rms(c)
DAV:   1    -0.748202307716E+02    0.59252E-02   -0.63278E+00  6150   0.902E+00    0.356E-01
RMM:   2    -0.748349218643E+02   -0.14691E-01   -0.12409E-01  6186   0.161E+00    0.456E-01
RMM:   3    -0.748472292496E+02   -0.12307E-01   -0.13486E-02  8023   0.459E-01    0.916E-01
RMM:   4    -0.748317792956E+02    0.15450E-01   -0.29840E-03  6530   0.187E-01    0.163E-01
RMM:   5    -0.748314130809E+02    0.36621E-03   -0.59653E-04  6493   0.106E-01    0.124E-01
RMM:   6    -0.748315466949E+02   -0.13361E-03   -0.61553E-04  6352   0.101E-01    0.163E-01
RMM:   7    -0.748311402685E+02    0.40643E-03   -0.10240E-03  6361   0.115E-01    0.483E-02
RMM:   8    -0.748311089456E+02    0.31323E-04   -0.11355E-04  5967   0.618E-02    0.302E-02
RMM:   9    -0.748310907447E+02    0.18201E-04   -0.19144E-05  3383   0.205E-02    0.178E-02
RMM:  10    -0.748310854784E+02    0.52662E-05   -0.11140E-05  3251   0.206E-02
  16 F= -.74831085E+02 E0= -.74772477E+02  d E =-.943462E-02
 curvature: -13.04 expect dE=-0.531E-02 dE for cont linesearch -0.110E-02
 ZBRENT: increasing intervall
 opt :  17.2754  next Energy=   -74.830088 (dE=-0.844E-02)
 bond charge predicted
       N       E                     dE             d eps       ncg     rms          rms(c)
DAV:   1    -0.747841635308E+02    0.46927E-01   -0.25327E+01  6150   0.181E+01    0.724E-01
RMM:   2    -0.748531439668E+02   -0.68980E-01   -0.53211E-01  6186   0.364E+00    0.114E+00
RMM:   3    -0.748828669136E+02   -0.29723E-01   -0.63564E-02  8061   0.940E-01    0.159E+00
RMM:   4    -0.748334864033E+02    0.49381E-01   -0.10837E-02  6527   0.382E-01    0.334E-01
RMM:   5    -0.748319780709E+02    0.15083E-02   -0.22475E-03  6580   0.197E-01    0.238E-01
RMM:   6    -0.748332596898E+02   -0.12816E-02   -0.33253E-03  6356   0.237E-01    0.382E-01
RMM:   7    -0.748310338792E+02    0.22258E-02   -0.43291E-03  6469   0.244E-01    0.998E-02
RMM:   8    -0.748308846987E+02    0.14918E-03   -0.54342E-04  6194   0.121E-01    0.633E-02
RMM:   9    -0.748308120027E+02    0.72696E-04   -0.11165E-04  6137   0.442E-02    0.399E-02
RMM:  10    -0.748307811247E+02    0.30878E-04   -0.46832E-05  4655   0.300E-02    0.221E-02
RMM:  11    -0.748307794637E+02    0.16610E-05   -0.52089E-05  5102   0.281E-02
  17 F= -.74830779E+02 E0= -.74772372E+02  d E =-.912861E-02
 curvature:  11.83 expect dE= 0.196E-01 dE for cont linesearch  0.167E-02
 ZBRENT: bracketing found
 ZBRENT: interpolating
 opt :  11.8314  next Energy=   -74.832438 (dE=-0.108E-01)
 bond charge predicted
       N       E                     dE             d eps       ncg     rms          rms(c)
DAV:   1    -0.748186754912E+02    0.12106E-01   -0.80416E+00  6150   0.102E+01    0.413E-01
RMM:   2    -0.748344699606E+02   -0.15794E-01   -0.15990E-01  6184   0.184E+00    0.307E-01
RMM:   3    -0.748675721905E+02   -0.33102E-01   -0.18881E-02  7695   0.585E-01    0.142E+00
RMM:   4    -0.748336629928E+02    0.33909E-01   -0.53329E-03  6533   0.250E-01    0.187E-01
RMM:   5    -0.748331106923E+02    0.55230E-03   -0.80839E-04  6440   0.139E-01    0.159E-01
RMM:   6    -0.748330006665E+02    0.11003E-03   -0.62892E-04  6244   0.107E-01    0.155E-01
RMM:   7    -0.748326602663E+02    0.34040E-03   -0.16181E-03  6326   0.140E-01    0.736E-02
RMM:   8    -0.748325886474E+02    0.71619E-04   -0.14432E-04  6092   0.777E-02    0.406E-02
RMM:   9    -0.748325631496E+02    0.25498E-04   -0.23293E-05  3468   0.245E-02    0.235E-02
RMM:  10    -0.748325536872E+02    0.94624E-05   -0.18632E-05  3322   0.231E-02
  18 F= -.74832554E+02 E0= -.74774007E+02  d E =-.109028E-01
 curvature:  -9.57 expect dE=-0.410E-02 dE for cont linesearch -0.242E-04
 trial: gam= 0.25093 g(F)=  0.429E-03 g(S)=  0.000E+00 ort = 0.111E-03 (trialstep = 0.461E+01)
 search vector abs. value=  0.794E-03
 bond charge predicted
       N       E                     dE             d eps       ncg     rms          rms(c)
DAV:   1    -0.748330700971E+02   -0.50695E-03   -0.98052E-01  6150   0.311E+00    0.117E-01
RMM:   2    -0.748350892589E+02   -0.20192E-02   -0.14329E-02  6181   0.537E-01    0.217E-01
RMM:   3    -0.748357614860E+02   -0.67223E-03   -0.21102E-03  8014   0.193E-01    0.283E-01
RMM:   4    -0.748345730444E+02    0.11884E-02   -0.47804E-04  6669   0.813E-02    0.115E-01
RMM:   5    -0.748343649239E+02    0.20812E-03   -0.14098E-04  6207   0.474E-02    0.594E-02
RMM:   6    -0.748343156770E+02    0.49247E-04   -0.16596E-04  6163   0.427E-02    0.429E-02
RMM:   7    -0.748343364676E+02   -0.20791E-04   -0.20423E-04  6693   0.556E-02    0.483E-02
RMM:   8    -0.748342968574E+02    0.39610E-04   -0.44914E-05  4506   0.307E-02    0.139E-02
RMM:   9    -0.748342935652E+02    0.32922E-05   -0.10141E-05  3245   0.194E-02
  19 F= -.74834294E+02 E0= -.74775901E+02  d E =-.173988E-02
 trial-energy change:   -0.001740  1 .order   -0.001691   -0.002106   -0.001276
 step:   8.8231(harm= 11.6933)  dis= 0.00389  next Energy=   -74.834915 (dE=-0.236E-02)
 bond charge predicted
       N       E                     dE             d eps       ncg     rms          rms(c)
DAV:   1    -0.748337571106E+02    0.53975E-03   -0.81758E-01  6150   0.284E+00    0.107E-01
RMM:   2    -0.748353010442E+02   -0.15439E-02   -0.12050E-02  6181   0.490E-01    0.176E-01
RMM:   3    -0.748361361692E+02   -0.83512E-03   -0.17267E-03  7849   0.177E-01    0.269E-01
RMM:   4    -0.748350450114E+02    0.10912E-02   -0.40505E-04  6776   0.728E-02    0.108E-01
RMM:   5    -0.748348593503E+02    0.18566E-03   -0.12507E-04  6146   0.444E-02    0.542E-02
RMM:   6    -0.748348168293E+02    0.42521E-04   -0.13114E-04  6026   0.383E-02    0.371E-02
RMM:   7    -0.748348271181E+02   -0.10289E-04   -0.16181E-04  6448   0.485E-02    0.366E-02
RMM:   8    -0.748348051865E+02    0.21932E-04   -0.26234E-05  3517   0.252E-02    0.131E-02
RMM:   9    -0.748348025860E+02    0.26005E-05   -0.94531E-06  3235   0.209E-02
  20 F= -.74834803E+02 E0= -.74776551E+02  d E =-.224890E-02
 curvature:  -8.49 expect dE=-0.122E-02 dE for cont linesearch -0.399E-07
 trial: gam= 0.39897 g(F)=  0.143E-03 g(S)=  0.000E+00 ort =-0.193E-05 (trialstep = 0.545E+01)
 search vector abs. value=  0.268E-03
 bond charge predicted
       N       E                     dE             d eps       ncg     rms          rms(c)
DAV:   1    -0.748347399064E+02    0.65280E-04   -0.46399E-01  6150   0.211E+00    0.655E-02
RMM:   2    -0.748353398576E+02   -0.59995E-03   -0.60135E-03  6173   0.372E-01    0.588E-02
RMM:   3    -0.748357290159E+02   -0.38916E-03   -0.73589E-04  8147   0.112E-01    0.150E-01
RMM:   4    -0.748353876738E+02    0.34134E-03   -0.10203E-04  5717   0.326E-02    0.677E-02
RMM:   5    -0.748353246198E+02    0.63054E-04   -0.33353E-05  3980   0.263E-02    0.383E-02
RMM:   6    -0.748353144833E+02    0.10137E-04   -0.88303E-05  5959   0.388E-02    0.373E-02
RMM:   7    -0.748353019182E+02    0.12565E-04   -0.15330E-04  6047   0.415E-02    0.185E-02
RMM:   8    -0.748352997599E+02    0.21583E-05   -0.14424E-05  3265   0.249E-02
  21 F= -.74835300E+02 E0= -.74777198E+02  d E =-.497174E-03
 trial-energy change:   -0.000497  1 .order   -0.000558   -0.000778   -0.000339
 step:   9.6560(harm=  9.6560)  dis= 0.00456  next Energy=   -74.835491 (dE=-0.689E-03)
 bond charge predicted
       N       E                     dE             d eps       ncg     rms          rms(c)
DAV:   1    -0.748350306331E+02    0.27129E-03   -0.27538E-01  6150   0.163E+00    0.521E-02
RMM:   2    -0.748353977514E+02   -0.36712E-03   -0.36770E-03  6175   0.292E-01    0.468E-02
RMM:   3    -0.748355832311E+02   -0.18548E-03   -0.50914E-04  8283   0.919E-02    0.106E-01
RMM:   4    -0.748354539748E+02    0.12926E-03   -0.60970E-05  4990   0.261E-02    0.625E-02
RMM:   5    -0.748353917849E+02    0.62190E-04   -0.21734E-05  3521   0.232E-02    0.294E-02
RMM:   6    -0.748353849681E+02    0.68168E-05   -0.43840E-05  4445   0.303E-02
  22 F= -.74835385E+02 E0= -.74777388E+02  d E =-.582382E-03
 curvature:  -9.08 expect dE=-0.217E-03 dE for cont linesearch -0.380E-05
 trial: gam= 0.08237 g(F)=  0.239E-04 g(S)=  0.000E+00 ort = 0.106E-04 (trialstep = 0.629E+01)
 search vector abs. value=  0.275E-04
 bond charge predicted
       N       E                     dE             d eps       ncg     rms          rms(c)
DAV:   1    -0.748353785489E+02    0.13236E-04   -0.61103E-02  6150   0.837E-01    0.331E-02
RMM:   2    -0.748355625073E+02   -0.18396E-03   -0.10237E-03  6185   0.151E-01    0.769E-02
RMM:   3    -0.748355836368E+02   -0.21130E-04   -0.16579E-04  6810   0.523E-02    0.780E-02
RMM:   4    -0.748354828281E+02    0.10081E-03   -0.43737E-05  4313   0.292E-02    0.280E-02
RMM:   5    -0.748354696360E+02    0.13192E-04   -0.11712E-05  3239   0.212E-02    0.144E-02
RMM:   6    -0.748354684666E+02    0.11694E-05   -0.48959E-06  3163   0.127E-02
  23 F= -.74835468E+02 E0= -.74777506E+02  d E =-.834985E-04
 trial-energy change:   -0.000083  1 .order   -0.000104   -0.000156   -0.000052
 step:   9.4554(harm=  9.4554)  dis= 0.00146  next Energy=   -74.835502 (dE=-0.117E-03)
 bond charge predicted
       N       E                     dE             d eps       ncg     rms          rms(c)
DAV:   1    -0.748354651717E+02    0.44644E-05   -0.15539E-02  6270   0.422E-01    0.154E-02
RMM:   2    -0.748354971374E+02   -0.31966E-04   -0.23828E-04  6125   0.734E-02    0.256E-02
RMM:   3    -0.748355061966E+02   -0.90592E-05   -0.23747E-05  3462   0.246E-02
  24 F= -.74835506E+02 E0= -.74777528E+02  d E =-.121228E-03
 curvature:  -5.24 expect dE=-0.441E-04 dE for cont linesearch -0.711E-06
 trial: gam= 0.39650 g(F)=  0.842E-05 g(S)=  0.000E+00 ort =-0.193E-05 (trialstep = 0.692E+01)
 search vector abs. value=  0.112E-04
 reached required accuracy - stopping structural energy minimisation
 writing wavefunctions
