 running on   20 total cores
 distrk:  each k-point on   20 cores,    1 groups
 distr:  one band on    1 cores,   20 groups
 using from now: INCAR     
 vasp.5.4.1 24Jun15 (build Oct 26 2018 17:15:27) complex                        
  
 POSCAR found type information on POSCAR  Pt
 POSCAR found :  1 types and       4 ions
 scaLAPACK will be used

 ----------------------------------------------------------------------------- 
|                                                                             |
|           W    W    AA    RRRRR   N    N  II  N    N   GGGG   !!!           |
|           W    W   A  A   R    R  NN   N  II  NN   N  G    G  !!!           |
|           W    W  A    A  R    R  N N  N  II  N N  N  G       !!!           |
|           W WW W  AAAAAA  RRRRR   N  N N  II  N  N N  G  GGG   !            |
|           WW  WW  A    A  R   R   N   NN  II  N   NN  G    G                |
|           W    W  A    A  R    R  N    N  II  N    N   GGGG   !!!           |
|                                                                             |
|      For optimal performance we recommend to set                            |
|        NCORE= 4 - approx SQRT( number of cores)                             |
|      NCORE specifies how many cores store one orbital (NPAR=cpu/NCORE).     |
|      This setting can  greatly improve the performance of VASP for DFT.     |
|      The default, NPAR=number of cores might be grossly inefficient         |
|      on modern multi-core architectures or massively parallel machines.     |
|      Do your own testing !!!!                                               |
|      Unfortunately you need to use the default for GW and RPA calculations. |
|      (for HF NCORE is supported but not extensively tested yet)             |
|                                                                             |
 ----------------------------------------------------------------------------- 


 ----------------------------------------------------------------------------- 
|                                                                             |
|  ADVICE TO THIS USER RUNNING 'VASP/VAMP'   (HEAR YOUR MASTER'S VOICE ...):  |
|                                                                             |
|      You have a (more or less) 'small supercell' and for smaller cells      |
|      it is recommended  to use the reciprocal-space projection scheme!      |
|      The real space optimization is not  efficient for small cells and it   |
|      is also less accurate ...                                              |
|      Therefore set LREAL=.FALSE. in the  INCAR file                         |
|                                                                             |
 ----------------------------------------------------------------------------- 

 LDA part: xc-table for Ceperly-Alder, standard interpolation
 found WAVECAR, reading the header
  number of bands has changed, file:    30 present:    40
  trying to continue reading WAVECAR, but it might fail
  number of k-points has changed, file:    49 present:    73
  trying to continue reading WAVECAR, but it might fail
 POSCAR, INCAR and KPOINTS ok, starting setup
 WARNING: small aliasing (wrap around) errors must be expected
 FFT: planning ...
 reading WAVECAR
 random initialization beyond band           31
 the WAVECAR file was read successfully
 initial charge from wavefunction
 entering main loop
       N       E                     dE             d eps       ncg     rms          rms(c)
DAV:   1    -0.909809209299E+02   -0.90981E+02   -0.31727E+03  6420   0.222E+02BRMIX: very serious problems
 the old and the new charge density differ
 old charge density:    37.88358 new   40.00000
    0.302E+01
RMM:   2    -0.436349836004E+03   -0.34537E+03   -0.12410E+03  7904   0.175E+02    0.507E+01
RMM:   3    -0.110939532931E+03    0.32541E+03   -0.18149E+02  6068   0.640E+01    0.374E+01
RMM:   4    -0.585350403529E+02    0.52404E+02   -0.19561E+01  5923   0.275E+01    0.192E+01
RMM:   5    -0.511174950332E+02    0.74175E+01   -0.36025E+00  6040   0.102E+01    0.119E+01
RMM:   6    -0.440841512248E+02    0.70333E+01   -0.23293E+00  6166   0.684E+00    0.762E+00
RMM:   7    -0.345574275931E+02    0.95267E+01   -0.70801E+00  5921   0.112E+01    0.682E+00
RMM:   8    -0.318840635999E+02    0.26734E+01   -0.50285E-01  5879   0.385E+00    0.642E+00
RMM:   9    -0.471103483109E+02   -0.15226E+02   -0.47166E+00  5887   0.631E+00    0.198E+01
RMM:  10    -0.532451154169E+02   -0.61348E+01   -0.13764E+00  6118   0.480E+00    0.218E+01
RMM:  11    -0.289123107174E+02    0.24333E+02   -0.28963E+00  5914   0.532E+00    0.885E+00
RMM:  12    -0.109938509379E+03   -0.81026E+02   -0.35759E+01  6518   0.126E+01    0.369E+01
RMM:  13    -0.179249467875E+03   -0.69311E+02   -0.44950E+01  7361   0.115E+01    0.405E+01
RMM:  14    -0.506867127828E+02    0.12856E+03   -0.97753E+00  5844   0.940E+00    0.230E+01
RMM:  15    -0.294029565858E+02    0.21284E+02   -0.24069E+00  5951   0.588E+00    0.863E+00
RMM:  16    -0.281037042586E+02    0.12993E+01   -0.51137E-01  6804   0.261E+00    0.708E+00
RMM:  17    -0.306127342494E+02   -0.25090E+01   -0.71352E-02  6010   0.104E+00    0.123E+01
RMM:  18    -0.762301659039E+02   -0.45617E+02   -0.31584E+00  5860   0.548E+00    0.313E+01
RMM:  19    -0.113902551594E+03   -0.37672E+02   -0.86295E-01  6062   0.401E+00    0.382E+01
RMM:  20    -0.128460390554E+03   -0.14558E+02   -0.37983E-01  7022   0.178E+00    0.386E+01
RMM:  21    -0.135431747518E+03   -0.69714E+01   -0.72303E-02  5880   0.133E+00    0.387E+01
RMM:  22    -0.134177699500E+03    0.12540E+01   -0.23445E-01  5876   0.176E+00    0.384E+01
RMM:  23    -0.732376519518E+02    0.60940E+02   -0.20343E+00  5857   0.484E+00    0.301E+01
RMM:  24    -0.888067352413E+02   -0.15569E+02   -0.42624E-01  5874   0.378E+00    0.351E+01
RMM:  25    -0.899878054589E+02   -0.11811E+01   -0.17241E-01  6617   0.164E+00    0.354E+01
RMM:  26    -0.946145990546E+02   -0.46268E+01   -0.17945E-02  5870   0.606E-01    0.364E+01
RMM:  27    -0.930694783141E+02    0.15451E+01   -0.26840E-02  5858   0.742E-01    0.361E+01
RMM:  28    -0.939834838186E+02   -0.91401E+00   -0.51722E-02  5859   0.104E+00    0.363E+01
RMM:  29    -0.938597775687E+02    0.12371E+00   -0.15965E-03  5827   0.218E-01    0.363E+01
RMM:  30    -0.948319562930E+02   -0.97218E+00   -0.85777E-02  5847   0.133E+00    0.364E+01
RMM:  31    -0.943610980513E+02    0.47086E+00   -0.14605E-02  5846   0.611E-01    0.364E+01
RMM:  32    -0.945239846705E+02   -0.16289E+00   -0.59128E-04  5759   0.127E-01    0.364E+01
RMM:  33    -0.941129974068E+02    0.41099E+00   -0.54477E-04  5848   0.902E-02    0.363E+01
RMM:  34    -0.950513949590E+02   -0.93840E+00   -0.75775E-03  5851   0.375E-01    0.365E+01
RMM:  35    -0.962246106302E+02   -0.11732E+01   -0.27897E-02  5866   0.683E-01    0.367E+01
RMM:  36    -0.994666941204E+02   -0.32421E+01   -0.94356E-02  5859   0.120E+00    0.369E+01
RMM:  37    -0.100163516902E+03   -0.69682E+00   -0.14715E-02  5898   0.688E-01    0.370E+01
RMM:  38    -0.999658898105E+02    0.19763E+00   -0.20284E-03  7087   0.163E-01    0.369E+01
RMM:  39    -0.103596989020E+03   -0.36311E+01   -0.43834E-02  5855   0.873E-01    0.371E+01
RMM:  40    -0.107093389344E+03   -0.34964E+01   -0.53367E-02  5887   0.100E+00    0.372E+01
RMM:  41    -0.109394938122E+03   -0.23015E+01   -0.53833E-02  5977   0.104E+00    0.373E+01
RMM:  42    -0.913204837759E+02    0.18074E+02   -0.11714E-01  5850   0.147E+00    0.351E+01
RMM:  43    -0.790663375752E+02    0.12254E+02   -0.63831E-02  5848   0.904E-01    0.318E+01
RMM:  44    -0.730568188502E+02    0.60095E+01   -0.35592E-02  5857   0.677E-01    0.300E+01
RMM:  45    -0.718064759785E+02    0.12503E+01   -0.26438E-02  5852   0.542E-01    0.296E+01
RMM:  46    -0.694569733298E+02    0.23495E+01   -0.69528E-02  5854   0.951E-01    0.293E+01
RMM:  47    -0.880878778588E+02   -0.18631E+02   -0.35200E-01  5853   0.239E+00    0.355E+01
RMM:  48    -0.102265598748E+03   -0.14178E+02   -0.68428E-02  5842   0.914E-01    0.373E+01
RMM:  49    -0.108925508460E+03   -0.66599E+01   -0.30806E-02  5865   0.741E-01    0.376E+01
RMM:  50    -0.109330739816E+03   -0.40523E+00   -0.30606E-02  5880   0.762E-01    0.376E+01
RMM:  51    -0.963497393964E+02    0.12981E+02   -0.29178E-01  5843   0.232E+00    0.365E+01
RMM:  52    -0.677833286794E+02    0.28566E+02   -0.57208E+01  5887   0.294E+01    0.262E+01
RMM:  53    -0.666015714080E+02    0.11818E+01   -0.11915E+01  5865   0.130E+01    0.316E+01
RMM:  54    -0.574712509742E+02    0.91303E+01   -0.68087E-01  5863   0.572E+00    0.290E+01
RMM:  55    -0.567999675118E+02    0.67128E+00   -0.88814E-02  5880   0.122E+00    0.288E+01
RMM:  56    -0.656448544661E+02   -0.88449E+01   -0.72012E-01  5873   0.351E+00    0.315E+01
RMM:  57    -0.613488784357E+02    0.42960E+01   -0.14790E-01  5873   0.187E+00    0.306E+01
RMM:  58    -0.619055381045E+02   -0.55666E+00   -0.69052E-02  5896   0.968E-01    0.308E+01
RMM:  59    -0.593876951078E+02    0.25178E+01   -0.12427E-01  5871   0.130E+00    0.300E+01
RMM:  60    -0.597956748231E+02   -0.40798E+00   -0.79780E-03  6310   0.484E-01    0.301E+01
RMM:  61    -0.600831291639E+02   -0.28745E+00   -0.81714E-03  5872   0.382E-01    0.301E+01
RMM:  62    -0.202863898816E+03   -0.14278E+03   -0.85138E+01  5995   0.254E+01    0.465E+01
RMM:  63    -0.221073836406E+03   -0.18210E+02   -0.23333E+01  6230   0.142E+01    0.495E+01
RMM:  64    -0.280997523022E+03   -0.59924E+02   -0.26352E+01  6834   0.894E+00    0.519E+01
RMM:  65    -0.286551448888E+03   -0.55539E+01   -0.16149E+01  6732   0.579E+00    0.521E+01
RMM:  66    -0.319059147966E+03   -0.32508E+02   -0.18967E+01  7025   0.503E+00    0.542E+01
RMM:  67    -0.322162805019E+03   -0.31037E+01   -0.18106E+01  6641   0.602E+00    0.530E+01
RMM:  68    -0.328462506202E+03   -0.62997E+01   -0.12541E+01  6660   0.439E+00    0.539E+01
RMM:  69    -0.325863845055E+03    0.25987E+01   -0.10778E+01  6585   0.297E+00    0.538E+01
RMM:  70    -0.359946128810E+03   -0.34082E+02   -0.17057E+01  6556   0.477E+00    0.550E+01
RMM:  71    -0.362042691874E+03   -0.20966E+01   -0.14688E+01  6446   0.329E+00    0.550E+01
RMM:  72    -0.393959447824E+03   -0.31917E+02   -0.15586E+01  6131   0.904E+00    0.549E+01
RMM:  73    -0.375956623398E+03    0.18003E+02   -0.59993E+00  6119   0.506E+00    0.549E+01
RMM:  74    -0.378074541241E+03   -0.21179E+01   -0.32139E+00  6152   0.302E+00    0.547E+01
RMM:  75    -0.383448125061E+03   -0.53736E+01   -0.40658E+00  6106   0.434E+00    0.544E+01
RMM:  76    -0.389189024524E+03   -0.57409E+01   -0.10836E+00  6297   0.292E+00    0.545E+01
RMM:  77    -0.216188249436E+03    0.17300E+03   -0.71139E+00  5903   0.816E+00    0.409E+01
RMM:  78    -0.252994305685E+03   -0.36806E+02   -0.32595E+00  6061   0.838E+00    0.411E+01
RMM:  79    -0.244714712607E+03    0.82796E+01   -0.16116E+00  6467   0.464E+00    0.403E+01
RMM:  80    -0.245000556968E+03   -0.28584E+00   -0.12803E-01  6706   0.132E+00    0.403E+01
RMM:  81    -0.240838576752E+03    0.41620E+01   -0.63774E-02  6109   0.803E-01    0.401E+01
RMM:  82    -0.200179930057E+03    0.40659E+02   -0.20143E+00  5879   0.546E+00    0.405E+01
RMM:  83    -0.137147956396E+03    0.63032E+02   -0.42346E+00  5873   0.670E+00    0.402E+01
RMM:  84    -0.216858632803E+03   -0.79711E+02   -0.45660E+00  5878   0.515E+00    0.418E+01
RMM:  85    -0.215069788458E+03    0.17888E+01   -0.69372E-01  5918   0.315E+00    0.418E+01
RMM:  86    -0.219484128257E+03   -0.44143E+01   -0.51768E-01  5899   0.161E+00    0.420E+01
RMM:  87    -0.200172076239E+03    0.19312E+02   -0.14819E+00  5898   0.417E+00    0.422E+01
RMM:  88    -0.129660195630E+03    0.70512E+02   -0.17052E+00  5935   0.408E+00    0.387E+01
RMM:  89    -0.111317527506E+03    0.18343E+02   -0.88153E-01  6081   0.316E+00    0.379E+01
RMM:  90    -0.107730838516E+03    0.35867E+01   -0.18807E+00  5927   0.354E+00    0.376E+01
RMM:  91    -0.133499507604E+03   -0.25769E+02   -0.19215E+00  5856   0.270E+00    0.399E+01
RMM:  92    -0.745952776182E+02    0.58904E+02   -0.15378E+02  6895   0.344E+01    0.311E+01
RMM:  93    -0.610746435799E+02    0.13521E+02   -0.54050E+01  6689   0.204E+01    0.327E+01
RMM:  94    -0.573383999729E+02    0.37362E+01   -0.27375E+01  6817   0.151E+01    0.319E+01
RMM:  95    -0.424622548552E+02    0.14876E+02   -0.29802E+01  7407   0.206E+01    0.186E+01
RMM:  96    -0.108179816320E+03   -0.65718E+02   -0.10097E+02  7645   0.279E+01    0.305E+01
RMM:  97    -0.152323348731E+03   -0.44144E+02   -0.12777E+02  7759   0.281E+01    0.357E+01
RMM:  98    -0.169205187151E+03   -0.16882E+02   -0.10205E+02  7852   0.203E+01    0.398E+01
RMM:  99    -0.141197539407E+03    0.28008E+02   -0.50270E+01  7022   0.137E+01    0.396E+01
RMM: 100    -0.151845970523E+03   -0.10648E+02   -0.15085E+01  6918   0.745E+00    0.426E+01
RMM: 101    -0.110347132775E+03    0.41499E+02   -0.22158E+00  6409   0.470E+00    0.358E+01
RMM: 102    -0.466807903947E+02    0.63666E+02   -0.24069E+01  5911   0.136E+01    0.243E+01
RMM: 103    -0.417544445451E+02    0.49263E+01   -0.10476E+00  5847   0.553E+00    0.207E+01
RMM: 104    -0.404382486121E+02    0.13162E+01   -0.51151E-01  5868   0.262E+00    0.217E+01
RMM: 105    -0.324733818938E+02    0.79649E+01   -0.17487E+00  5859   0.494E+00    0.155E+01
RMM: 106    -0.574072528685E+02   -0.24934E+02   -0.40678E+00  5902   0.662E+00    0.232E+01
RMM: 107    -0.340754670301E+02    0.23332E+02   -0.10265E+00  5865   0.333E+00    0.117E+01
RMM: 108    -0.303981880822E+02    0.36773E+01   -0.51026E-01  5886   0.234E+00    0.133E+01
RMM: 109    -0.292061291970E+02    0.11921E+01   -0.26855E-01  5889   0.209E+00    0.127E+01
RMM: 110    -0.398998652974E+02   -0.10694E+02   -0.21913E+00  5859   0.442E+00    0.167E+01
RMM: 111    -0.892313501473E+02   -0.49331E+02   -0.17217E+01  6437   0.879E+00    0.302E+01
RMM: 112    -0.118473187400E+03   -0.29242E+02   -0.19246E+01  6661   0.776E+00    0.368E+01
RMM: 113    -0.130475421194E+03   -0.12002E+02   -0.11111E+01  7155   0.425E+00    0.386E+01
RMM: 114    -0.144024276900E+03   -0.13549E+02   -0.94357E+00  6910   0.376E+00    0.403E+01
RMM: 115    -0.146163295697E+03   -0.21390E+01   -0.46682E+00  7293   0.219E+00    0.409E+01
RMM: 116    -0.152535735653E+03   -0.63724E+01   -0.34739E+00  6686   0.174E+00    0.418E+01
RMM: 117    -0.123225836455E+03    0.29310E+02   -0.36301E+00  6084   0.493E+00    0.376E+01
RMM: 118    -0.296345604193E+02    0.93591E+02   -0.77515E+00  5877   0.811E+00    0.919E+00
RMM: 119    -0.260371599272E+02    0.35974E+01   -0.20400E+00  5904   0.566E+00    0.816E+00
RMM: 120    -0.257695085364E+02    0.26765E+00   -0.19162E-01  6343   0.190E+00    0.713E+00
RMM: 121    -0.262047711368E+02   -0.43526E+00   -0.35682E-02  5909   0.782E-01    0.724E+00
RMM: 122    -0.263629053967E+02   -0.15813E+00   -0.39972E-02  5871   0.900E-01    0.779E+00
RMM: 123    -0.312889497930E+02   -0.49260E+01   -0.33029E-01  5856   0.175E+00    0.106E+01
RMM: 124    -0.260499510264E+02    0.52390E+01   -0.49828E-01  5885   0.205E+00    0.836E+00
RMM: 125    -0.258938485198E+02    0.15610E+00   -0.64932E-02  5922   0.126E+00    0.847E+00
RMM: 126    -0.259183587840E+02   -0.24510E-01   -0.81098E-03  5883   0.378E-01    0.834E+00
RMM: 127    -0.283277082989E+02   -0.24093E+01   -0.23151E-01  5870   0.152E+00    0.875E+00
RMM: 128    -0.284230515977E+02   -0.95343E-01   -0.23722E-02  5869   0.997E-01    0.894E+00
RMM: 129    -0.304108569131E+02   -0.19878E+01   -0.12947E-01  5857   0.148E+00    0.975E+00
RMM: 130    -0.297128212990E+02    0.69804E+00   -0.55714E-02  5852   0.132E+00    0.993E+00
RMM: 131    -0.336385437624E+02   -0.39257E+01   -0.17234E-01  5867   0.136E+00    0.111E+01
RMM: 132    -0.305015003106E+02    0.31370E+01   -0.59767E-02  5856   0.112E+00    0.919E+00
RMM: 133    -0.311244313051E+02   -0.62293E+00   -0.30354E-02  5854   0.882E-01    0.944E+00
RMM: 134    -0.321824261609E+02   -0.10580E+01   -0.47232E-02  5848   0.103E+00    0.998E+00
RMM: 135    -0.320523685093E+02    0.13006E+00   -0.13568E-02  5841   0.646E-01    0.990E+00
RMM: 136    -0.528650433077E+02   -0.20813E+02   -0.93330E-01  5859   0.288E+00    0.203E+01
RMM: 137    -0.402666050447E+02    0.12598E+02   -0.22297E-01  5852   0.170E+00    0.142E+01
RMM: 138    -0.377222949047E+02    0.25443E+01   -0.74210E-02  5848   0.121E+00    0.129E+01
RMM: 139    -0.373785347013E+02    0.34376E+00   -0.32054E-02  5860   0.898E-01    0.128E+01
RMM: 140    -0.376331706711E+02   -0.25464E+00   -0.18415E-02  5853   0.698E-01    0.126E+01
RMM: 141    -0.382392213570E+02   -0.60605E+00   -0.10484E-02  5850   0.480E-01    0.128E+01
RMM: 142    -0.372052663484E+02    0.10340E+01   -0.79661E-02  5845   0.146E+00    0.122E+01
RMM: 143    -0.319620846683E+02    0.52432E+01   -0.12451E-01  5864   0.116E+00    0.108E+01
RMM: 144    -0.314999471391E+02    0.46214E+00   -0.17859E-02  5889   0.624E-01    0.101E+01
RMM: 145    -0.316129801876E+02   -0.11303E+00   -0.34274E-03  5897   0.274E-01    0.102E+01
RMM: 146    -0.289186025749E+02    0.26944E+01   -0.94112E-02  5876   0.977E-01    0.975E+00
RMM: 147    -0.284149330523E+02    0.50367E+00   -0.16762E-02  5894   0.695E-01    0.947E+00
RMM: 148    -0.280335973834E+02    0.38134E+00   -0.12552E-02  5898   0.377E-01    0.962E+00
RMM: 149    -0.281106990581E+02   -0.77102E-01   -0.83597E-04  5884   0.186E-01    0.970E+00
RMM: 150    -0.279800547304E+02    0.13064E+00   -0.11063E-03  5895   0.126E-01    0.963E+00
RMM: 151    -0.279053800622E+02    0.74675E-01   -0.67834E-04  5898   0.109E-01    0.962E+00
RMM: 152    -0.280785348222E+02   -0.17315E+00   -0.13284E+00  5871   0.466E+00    0.116E+01
RMM: 153    -0.420228101770E+02   -0.13944E+02   -0.34059E+00  5849   0.598E+00    0.179E+01
RMM: 154    -0.381882686644E+02    0.38345E+01   -0.14107E-01  5864   0.242E+00    0.164E+01
RMM: 155    -0.369337652912E+02    0.12545E+01   -0.81768E-02  5852   0.133E+00    0.157E+01
RMM: 156    -0.311014957663E+02    0.58323E+01   -0.12351E-01  5848   0.134E+00    0.123E+01
RMM: 157    -0.268616385179E+02    0.42399E+01   -0.14911E-01  5862   0.154E+00    0.879E+00
RMM: 158    -0.269527386144E+02   -0.91100E-01   -0.10029E-02  5859   0.618E-01    0.873E+00
RMM: 159    -0.255524677701E+02    0.14003E+01   -0.20550E-02  5866   0.526E-01    0.740E+00
RMM: 160    -0.248821146196E+02    0.67035E+00   -0.16803E-02  5878   0.566E-01    0.651E+00
RMM: 161    -0.241373813709E+02    0.74473E+00   -0.26788E-02  5876   0.655E-01    0.537E+00
RMM: 162    -0.236046687250E+02    0.53271E+00   -0.15997E-01  5874   0.194E+00    0.436E+00
RMM: 163    -0.235918422050E+02    0.12827E-01   -0.60458E-03  6069   0.339E-01    0.436E+00
RMM: 164    -0.244121772778E+02   -0.82034E+00   -0.11092E-01  5845   0.129E+00    0.664E+00
RMM: 165    -0.241856043028E+02    0.22657E+00   -0.27147E-02  5840   0.694E-01    0.641E+00
RMM: 166    -0.235494750702E+02    0.63613E+00   -0.77630E-02  5846   0.973E-01    0.471E+00
RMM: 167    -0.235116360643E+02    0.37839E-01   -0.49133E-03  5840   0.391E-01    0.468E+00
RMM: 168    -0.234228156386E+02    0.88820E-01   -0.42317E-03  5840   0.343E-01    0.437E+00
RMM: 169    -0.233971534893E+02    0.25662E-01   -0.14193E-03  5840   0.167E-01    0.432E+00
RMM: 170    -0.233742297594E+02    0.22924E-01   -0.16741E-04  5841   0.554E-02    0.423E+00
RMM: 171    -0.233720334249E+02    0.21963E-02   -0.39184E-04  5840   0.908E-02    0.424E+00
RMM: 172    -0.233147152248E+02    0.57318E-01   -0.12195E-02  5840   0.402E-01    0.400E+00
RMM: 173    -0.232396236393E+02    0.75092E-01   -0.38091E-03  5840   0.280E-01    0.359E+00
RMM: 174    -0.234451295311E+02   -0.20551E+00   -0.11582E-02  5864   0.309E-01    0.457E+00
RMM: 175    -0.232820875901E+02    0.16304E+00   -0.60382E-03  5843   0.243E-01    0.382E+00
RMM: 176    -0.232713830828E+02    0.10705E-01   -0.33208E-04  5864   0.100E-01    0.376E+00
RMM: 177    -0.232492989864E+02    0.22084E-01   -0.32659E-03  5840   0.289E-01    0.364E+00
RMM: 178    -0.234356703774E+02   -0.18637E+00   -0.80938E-03  5840   0.371E-01    0.448E+00
RMM: 179    -0.233413202310E+02    0.94350E-01   -0.69701E-04  5840   0.120E-01    0.409E+00
RMM: 180    -0.233270596179E+02    0.14261E-01   -0.46127E-04  5840   0.105E-01    0.406E+00
RMM: 181    -0.231081098089E+02    0.21895E+00   -0.13044E-02  5840   0.512E-01    0.281E+00
RMM: 182    -0.230058060310E+02    0.10230E+00   -0.28316E-02  5840   0.802E-01    0.193E+00
RMM: 183    -0.229583852675E+02    0.47421E-01   -0.38307E-03  5865   0.234E-01    0.111E+00
RMM: 184    -0.229586466178E+02   -0.26135E-03   -0.47318E-04  5997   0.117E-01    0.112E+00
RMM: 185    -0.231282996200E+02   -0.16965E+00   -0.18129E-02  5840   0.464E-01    0.330E+00
RMM: 186    -0.229627356554E+02    0.16556E+00   -0.92520E-03  5840   0.424E-01    0.103E+00
RMM: 187    -0.237609726361E+02   -0.79824E+00   -0.51885E-02  5840   0.750E-01    0.620E+00
RMM: 188    -0.231069430494E+02    0.65403E+00   -0.15783E-02  5840   0.424E-01    0.290E+00
RMM: 189    -0.235199572684E+02   -0.41301E+00   -0.89643E-03  5840   0.373E-01    0.528E+00
RMM: 190    -0.233307793386E+02    0.18918E+00   -0.17968E-03  5840   0.193E-01    0.437E+00
RMM: 191    -0.233789910575E+02   -0.48212E-01   -0.22102E-04  5840   0.740E-02    0.458E+00
RMM: 192    -0.236059075761E+02   -0.22692E+00   -0.31645E-03  5840   0.188E-01    0.530E+00
RMM: 193    -0.235903270902E+02    0.15580E-01   -0.33245E-04  5840   0.126E-01    0.523E+00
RMM: 194    -0.236231478599E+02   -0.32821E-01   -0.10969E-04  5824   0.425E-02    0.532E+00
RMM: 195    -0.237177229237E+02   -0.94575E-01   -0.64395E-04  5840   0.132E-01    0.553E+00
RMM: 196    -0.237417900810E+02   -0.24067E-01   -0.22928E-04  5840   0.759E-02    0.558E+00
RMM: 197    -0.234876225363E+02    0.25417E+00   -0.31728E-03  5840   0.183E-01    0.494E+00
RMM: 198    -0.237968314749E+02   -0.30921E+00   -0.70232E-03  5840   0.333E-01    0.589E+00
RMM: 199    -0.235171368564E+02    0.27969E+00   -0.20456E-03  5840   0.163E-01    0.511E+00
RMM: 200    -0.237739207505E+02   -0.25678E+00   -0.29521E-03  5840   0.212E-01    0.585E+00
RMM: 201    -0.236974475932E+02    0.76473E-01   -0.30145E-04  5840   0.986E-02    0.563E+00
RMM: 202    -0.235481202823E+02    0.14933E+00   -0.72365E-04  5840   0.808E-02    0.518E+00
RMM: 203    -0.234969695211E+02    0.51151E-01   -0.15622E-04  5803   0.602E-02    0.502E+00
RMM: 204    -0.234611690277E+02    0.35800E-01   -0.93579E-05  5758   0.377E-02    0.492E+00
RMM: 205    -0.234436303319E+02    0.17539E-01   -0.83002E-05  5803   0.498E-02    0.487E+00
RMM: 206    -0.234802917304E+02   -0.36661E-01   -0.43983E-05  5369   0.253E-02    0.499E+00
RMM: 207    -0.236908246973E+02   -0.21053E+00   -0.18306E-03  5840   0.134E-01    0.563E+00
RMM: 208    -0.237189417434E+02   -0.28117E-01   -0.14402E-04  5833   0.772E-02    0.569E+00
RMM: 209    -0.236109284329E+02    0.10801E+00   -0.47111E-04  5840   0.103E-01    0.544E+00
RMM: 210    -0.236154985575E+02   -0.45701E-02   -0.84320E-06  4176   0.178E-02    0.545E+00
RMM: 211    -0.234916161177E+02    0.12388E+00   -0.61964E-04  5840   0.936E-02    0.512E+00
RMM: 212    -0.235441332188E+02   -0.52517E-01   -0.10379E-04  5781   0.445E-02    0.527E+00
RMM: 213    -0.235442094012E+02   -0.76182E-04   -0.28789E-06  4010   0.117E-02    0.527E+00
RMM: 214    -0.235414512970E+02    0.27581E-02   -0.58791E-07  3911   0.503E-03    0.527E+00
RMM: 215    -0.235261480190E+02    0.15303E-01   -0.11754E-05  4293   0.178E-02    0.522E+00
RMM: 216    -0.235319438057E+02   -0.57958E-02   -0.16456E-05  4444   0.221E-02    0.523E+00
RMM: 217    -0.229988928593E+02    0.53305E+00   -0.42435E-02  5840   0.795E-01    0.182E+00
RMM: 218    -0.229430645504E+02    0.55828E-01   -0.18820E-02  5840   0.572E-01    0.488E-01
RMM: 219    -0.229660043465E+02   -0.22940E-01   -0.18167E-03  5846   0.183E-01    0.134E+00
RMM: 220    -0.229433286085E+02    0.22676E-01   -0.38468E-03  5840   0.312E-01    0.388E-01
RMM: 221    -0.229647059876E+02   -0.21377E-01   -0.14745E-03  5840   0.160E-01    0.128E+00
RMM: 222    -0.229454378696E+02    0.19268E-01   -0.21786E-03  5840   0.213E-01    0.510E-01
RMM: 223    -0.229464728333E+02   -0.10350E-02   -0.11166E-03  5840   0.118E-01    0.490E-01
RMM: 224    -0.229430811827E+02    0.33917E-02   -0.16235E-04  5840   0.777E-02    0.187E-01
RMM: 225    -0.229495283503E+02   -0.64472E-02   -0.67628E-04  5840   0.111E-01    0.740E-01
RMM: 226    -0.229479861400E+02    0.15422E-02   -0.20815E-04  5840   0.675E-02    0.661E-01
RMM: 227    -0.229424343327E+02    0.55518E-02   -0.40508E-04  5840   0.975E-02    0.142E-01
RMM: 228    -0.229438694787E+02   -0.14351E-02   -0.88368E-05  5824   0.462E-02    0.354E-01
RMM: 229    -0.229427446036E+02    0.11249E-02   -0.15487E-05  4403   0.213E-02    0.212E-01
RMM: 230    -0.229425452650E+02    0.19934E-03   -0.19722E-05  4466   0.235E-02    0.168E-01
RMM: 231    -0.229425121733E+02    0.33092E-04   -0.10261E-05  4290   0.156E-02    0.154E-01
RMM: 232    -0.229422223858E+02    0.28979E-03   -0.32520E-05  5210   0.316E-02    0.198E-02
RMM: 233    -0.229422471858E+02   -0.24800E-04   -0.57263E-06  4151   0.110E-02    0.505E-02
RMM: 234    -0.229422639112E+02   -0.16725E-04   -0.14182E-06  4013   0.732E-03    0.602E-02
RMM: 235    -0.229422591614E+02    0.47498E-05   -0.36130E-07  3674   0.380E-03
   1 F= -.22942259E+02 E0= -.22918174E+02  d E =-.229423E+02
 curvature:   0.00 expect dE= 0.000E+00 dE for cont linesearch  0.000E+00
 trial: gam= 0.00000 g(F)=  0.417E-03 g(S)=  0.000E+00 ort = 0.000E+00 (trialstep = 0.100E+01)
 search vector abs. value=  0.417E-03
 bond charge predicted
       N       E                     dE             d eps       ncg     rms          rms(c)
DAV:   1    -0.229426412899E+02   -0.37738E-03   -0.23701E-02  7600   0.520E-01    0.668E-02
RMM:   2    -0.229625111529E+02   -0.19870E-01   -0.14208E-03  5840   0.163E-01    0.119E+00
RMM:   3    -0.229427746611E+02    0.19736E-01   -0.71859E-04  5840   0.104E-01    0.447E-02
RMM:   4    -0.229426292148E+02    0.14545E-03   -0.60589E-05  5434   0.508E-02    0.372E-02
RMM:   5    -0.229426041104E+02    0.25104E-04   -0.81791E-06  4156   0.191E-02    0.828E-03
RMM:   6    -0.229426053156E+02   -0.12052E-05   -0.39716E-06  3963   0.126E-02
   2 F= -.22942605E+02 E0= -.22918512E+02  d E =-.346154E-03
 ZBRENT: can't locate minimum, use default step
 trial-energy change:   -0.000346  1 .order   -0.000393   -0.000417   -0.000369
 step:   4.0000(harm=  8.6166)  dis= 0.00357  next Energy=   -22.944056 (dE=-0.180E-02)
 bond charge predicted
       N       E                     dE             d eps       ncg     rms          rms(c)
DAV:   1    -0.229432020197E+02   -0.59791E-03   -0.21333E-01  5940   0.156E+00    0.399E-02
RMM:   2    -0.229459045985E+02   -0.27026E-02   -0.20743E-03  5840   0.242E-01    0.421E-01
RMM:   3    -0.229434502258E+02    0.24544E-02   -0.29041E-04  5973   0.808E-02    0.504E-02
RMM:   4    -0.229434061819E+02    0.44044E-04   -0.36377E-05  5113   0.326E-02    0.299E-02
RMM:   5    -0.229433923756E+02    0.13806E-04   -0.79665E-06  3992   0.151E-02    0.203E-02
RMM:   6    -0.229433961559E+02   -0.37803E-05   -0.13663E-05  4116   0.200E-02
   3 F= -.22943396E+02 E0= -.22919274E+02  d E =-.113699E-02
 curvature:  -2.73 expect dE=-0.222E-03 dE for cont linesearch -0.210E-03
 ZBRENT: increasing intervall
 opt :  10.0000  next Energy=   -22.943337 (dE=-0.108E-02)
 bond charge predicted
       N       E                     dE             d eps       ncg     rms          rms(c)
DAV:   1    -0.229424638837E+02    0.92849E-03   -0.85399E-01  5840   0.312E+00    0.823E-02
RMM:   2    -0.229562106864E+02   -0.13747E-01   -0.86792E-03  5840   0.499E-01    0.950E-01
RMM:   3    -0.229435104910E+02    0.12700E-01   -0.13723E-03  5991   0.172E-01    0.996E-02
RMM:   4    -0.229433196117E+02    0.19088E-03   -0.17072E-04  5896   0.683E-02    0.615E-02
RMM:   5    -0.229432574797E+02    0.62132E-04   -0.27780E-05  5163   0.229E-02    0.391E-02
RMM:   6    -0.229432683156E+02   -0.10836E-04   -0.50337E-05  5718   0.337E-02    0.498E-02
RMM:   7    -0.229432296637E+02    0.38652E-04   -0.75465E-05  5805   0.332E-02    0.101E-02
RMM:   8    -0.229432268058E+02    0.28579E-05   -0.59175E-06  3939   0.183E-02
   4 F= -.22943227E+02 E0= -.22919056E+02  d E =-.967644E-03
 curvature:   0.77 expect dE= 0.899E-04 dE for cont linesearch  0.820E-04
 trial: gam= 0.00000 g(F)=  0.117E-03 g(S)=  0.000E+00 ort =-0.211E-03 (trialstep = 0.280E+01)
 search vector abs. value=  0.117E-03
 bond charge predicted
       N       E                     dE             d eps       ncg     rms          rms(c)
DAV:   1    -0.229434694337E+02   -0.23977E-03   -0.53047E-02  5960   0.777E-01    0.207E-02
RMM:   2    -0.229442281622E+02   -0.75873E-03   -0.56602E-04  5840   0.123E-01    0.222E-01
RMM:   3    -0.229435355453E+02    0.69262E-03   -0.72418E-05  5682   0.387E-02    0.266E-02
RMM:   4    -0.229435214922E+02    0.14053E-04   -0.79320E-06  4144   0.182E-02    0.149E-02
RMM:   5    -0.229435179402E+02    0.35520E-05   -0.29353E-06  3854   0.117E-02
   5 F= -.22943518E+02 E0= -.22919360E+02  d E =-.291134E-03
 trial-energy change:   -0.000291  1 .order   -0.000268   -0.000327   -0.000209
 step:   7.7900(harm=  7.7900)  dis= 0.00597  next Energy=   -22.943681 (dE=-0.454E-03)
 bond charge predicted
       N       E                     dE             d eps       ncg     rms          rms(c)
DAV:   1    -0.229435159174E+02    0.55747E-05   -0.16761E-01  5840   0.138E+00    0.431E-02
RMM:   2    -0.229464841422E+02   -0.29682E-02   -0.18774E-03  5840   0.227E-01    0.447E-01
RMM:   3    -0.229437571494E+02    0.27270E-02   -0.27679E-04  5896   0.728E-02    0.611E-02
RMM:   4    -0.229436858229E+02    0.71327E-04   -0.36760E-05  5149   0.363E-02    0.290E-02
RMM:   5    -0.229436721432E+02    0.13680E-04   -0.77235E-06  3968   0.154E-02    0.190E-02
RMM:   6    -0.229436750849E+02   -0.29418E-05   -0.12095E-05  4071   0.194E-02
   6 F= -.22943675E+02 E0= -.22919545E+02  d E =-.448279E-03
 curvature:  -3.90 expect dE=-0.548E-04 dE for cont linesearch -0.155E-04
 trial: gam= 0.00000 g(F)=  0.141E-04 g(S)=  0.000E+00 ort =-0.215E-04 (trialstep = 0.380E+01)
 search vector abs. value=  0.141E-04
 bond charge predicted
       N       E                     dE             d eps       ncg     rms          rms(c)
DAV:   1    -0.229436741642E+02   -0.20210E-05   -0.11221E-02  6320   0.357E-01    0.763E-03
RMM:   2    -0.229436859097E+02   -0.11746E-04   -0.11562E-04  5602   0.603E-02    0.115E-02
RMM:   3    -0.229436903036E+02   -0.43939E-05   -0.71067E-06  3855   0.155E-02
   7 F= -.22943690E+02 E0= -.22919557E+02  d E =-.152187E-04
 trial-energy change:   -0.000015  1 .order   -0.000034   -0.000053   -0.000015
 step:   5.2228(harm=  5.2228)  dis= 0.00000  next Energy=   -22.943712 (dE=-0.368E-04)
 bond charge predicted
       N       E                     dE             d eps       ncg     rms          rms(c)
DAV:   1    -0.229436852238E+02    0.68597E-06   -0.16888E-03  6080   0.139E-01    0.889E-03
RMM:   2    -0.229437917328E+02   -0.10651E-03   -0.17384E-05  4295   0.262E-02    0.841E-02
RMM:   3    -0.229436894551E+02    0.10228E-03   -0.53520E-06  3990   0.141E-02    0.156E-02
RMM:   4    -0.229436852502E+02    0.42048E-05   -0.21375E-06  3924   0.918E-03
   8 F= -.22943685E+02 E0= -.22919549E+02  d E =-.101653E-04
 curvature:  -2.61 expect dE=-0.858E-05 dE for cont linesearch -0.410E-05
 trial: gam=-0.10032 g(F)=  0.329E-05 g(S)=  0.000E+00 ort = 0.470E-05 (trialstep = 0.408E+01)
 search vector abs. value=  0.249E-05
 reached required accuracy - stopping structural energy minimisation
 writing wavefunctions
