 vasp.5.4.1 05Feb16 (build Nov 22 2018 20:17:51) complex                        
  
 POSCAR found type information on POSCAR  Cu Ag
 03/POSCAR found :  2 types and      37 ions
 scaLAPACK will be used

 ----------------------------------------------------------------------------- 
|                                                                             |
|           W    W    AA    RRRRR   N    N  II  N    N   GGGG   !!!           |
|           W    W   A  A   R    R  NN   N  II  NN   N  G    G  !!!           |
|           W    W  A    A  R    R  N N  N  II  N N  N  G       !!!           |
|           W WW W  AAAAAA  RRRRR   N  N N  II  N  N N  G  GGG   !            |
|           WW  WW  A    A  R   R   N   NN  II  N   NN  G    G                |
|           W    W  A    A  R    R  N    N  II  N    N   GGGG   !!!           |
|                                                                             |
|      For optimal performance we recommend to set                            |
|        NCORE= 4 - approx SQRT( number of cores)                             |
|      NCORE specifies how many cores store one orbital (NPAR=cpu/NCORE).     |
|      This setting can  greatly improve the performance of VASP for DFT.     |
|      The default, NPAR=number of cores might be grossly inefficient         |
|      on modern multi-core architectures or massively parallel machines.     |
|      Do your own testing !!!!                                               |
|      Unfortunately you need to use the default for GW and RPA calculations. |
|      (for HF NCORE is supported but not extensively tested yet)             |
|                                                                             |
 ----------------------------------------------------------------------------- 

 LDA part: xc-table for Ceperly-Alder, standard interpolation
 POSCAR found type information on POSCAR  Cu Ag
 00/POSCAR found :  2 types and      37 ions
 POSCAR found type information on POSCAR  Cu Ag
 05/POSCAR found :  2 types and      37 ions
 Jacobian:    19.6723208379109     
 POSCAR, INCAR and KPOINTS ok, starting setup
 WARNING: small aliasing (wrap around) errors must be expected
 FFT: planning ...
 WAVECAR not read
 entering main loop
       N       E                     dE             d eps       ncg     rms          rms(c)
DAV:   1     0.307130571853E+04    0.30713E+04   -0.17814E+05  4500   0.175E+03
DAV:   2     0.166507281810E+03   -0.29048E+04   -0.27608E+04  4500   0.400E+02
DAV:   3    -0.144437058111E+03   -0.31094E+03   -0.29353E+03  4690   0.165E+02
DAV:   4    -0.155811034132E+03   -0.11374E+02   -0.11246E+02  4800   0.356E+01
DAV:   5    -0.155908331433E+03   -0.97297E-01   -0.97233E-01  4900   0.276E+00    0.397E+01
DAV:   6    -0.141071459353E+03    0.14837E+02   -0.31092E+02  4880   0.929E+01    0.200E+01
DAV:   7    -0.128278957951E+03    0.12793E+02   -0.60810E+01  5060   0.482E+01    0.295E+00
DAV:   8    -0.128840961675E+03   -0.56200E+00   -0.62696E+00  5250   0.361E+01    0.466E+00
DAV:   9    -0.128275129440E+03    0.56583E+00   -0.25452E+00  5720   0.280E+01    0.253E+00
DAV:  10    -0.128190692599E+03    0.84437E-01   -0.66786E-01  6140   0.948E+00    0.183E+00
DAV:  11    -0.128153863330E+03    0.36829E-01   -0.56723E-01  4770   0.614E+00    0.818E-01
DAV:  12    -0.128155374874E+03   -0.15115E-02   -0.11641E-01  4890   0.191E+00    0.589E-01
DAV:  13    -0.128149091670E+03    0.62832E-02   -0.35278E-02  4850   0.214E+00    0.399E-01
DAV:  14    -0.128144479712E+03    0.46120E-02   -0.12735E-02  4920   0.117E+00    0.210E-01
DAV:  15    -0.128140790043E+03    0.36897E-02   -0.12953E-02  4690   0.994E-01    0.188E-01
DAV:  16    -0.128138619791E+03    0.21703E-02   -0.62265E-03  4730   0.569E-01    0.821E-02
DAV:  17    -0.128138227473E+03    0.39232E-03   -0.18018E-03  4660   0.370E-01    0.678E-02
DAV:  18    -0.128139665831E+03   -0.14384E-02   -0.14239E-03  5170   0.699E-01    0.981E-02
DAV:  19    -0.128140885311E+03   -0.12195E-02   -0.44097E-03  6550   0.139E+00    0.687E-02
DAV:  20    -0.128142326288E+03   -0.14410E-02   -0.13805E-03  4670   0.184E-01    0.700E-02
DAV:  21    -0.128142439394E+03   -0.11311E-03   -0.60670E-04  3910   0.486E-01    0.328E-02
DAV:  22    -0.128143291223E+03   -0.85183E-03   -0.72032E-04  4660   0.121E-01    0.259E-02
DAV:  23    -0.128143366438E+03   -0.75214E-04   -0.57855E-05  4740   0.652E-02    0.150E-02
DAV:  24    -0.128143416281E+03   -0.49843E-04   -0.14951E-05  3040   0.633E-02    0.794E-03
DAV:  25    -0.128143443156E+03   -0.26875E-04   -0.23935E-05  3000   0.770E-02    0.627E-03
DAV:  26    -0.128143451082E+03   -0.79256E-05   -0.23274E-05  3410   0.344E-02
   1 F= -.12814345E+03 E0= -.12810396E+03  d E =-.128143E+03
quench:  g(F)=  0.000E+00 g(S)=  0.000E+00 dE (1.order)= 0.000E+00
 bond charge predicted
       N       E                     dE             d eps       ncg     rms          rms(c)
DAV:   1    -0.128145646826E+03   -0.22037E-02   -0.52841E-02  4700   0.468E-01    0.162E-02
DAV:   2    -0.128145724719E+03   -0.77893E-04   -0.34617E-04  5920   0.341E-01    0.334E-02
DAV:   3    -0.128145656922E+03    0.67797E-04   -0.19069E-04  5150   0.279E-01    0.824E-03
DAV:   4    -0.128145661408E+03   -0.44860E-05   -0.56756E-05  4670   0.447E-02
   2 F= -.12814566E+03 E0= -.12810614E+03  d E =-.221033E-02
quench:  g(F)=  0.000E+00 g(S)=  0.000E+00 dE (1.order)= 0.000E+00
 bond charge predicted
       N       E                     dE             d eps       ncg     rms          rms(c)
DAV:   1    -0.128160557684E+03   -0.14901E-01   -0.55593E+00  4500   0.481E+00    0.151E-01
DAV:   2    -0.128162806335E+03   -0.22487E-02   -0.28585E-02  4820   0.869E-01    0.139E-01
DAV:   3    -0.128162769015E+03    0.37320E-04   -0.41403E-03  4860   0.719E-01    0.829E-02
DAV:   4    -0.128162629301E+03    0.13971E-03   -0.59532E-04  4740   0.299E-01    0.422E-02
DAV:   5    -0.128162671807E+03   -0.42505E-04   -0.38693E-04  5240   0.410E-01    0.400E-02
DAV:   6    -0.128162607929E+03    0.63878E-04   -0.33541E-04  5810   0.404E-01    0.109E-02
DAV:   7    -0.128162596262E+03    0.11666E-04   -0.76945E-05  4640   0.130E-01    0.640E-03
DAV:   8    -0.128162599556E+03   -0.32938E-05   -0.50804E-05  4590   0.428E-02
   3 F= -.12816260E+03 E0= -.12812315E+03  d E =-.169381E-01
quench:  g(F)=  0.000E+00 g(S)=  0.000E+00 dE (1.order)= 0.000E+00
 bond charge predicted
       N       E                     dE             d eps       ncg     rms          rms(c)
DAV:   1    -0.128172097832E+03   -0.95016E-02   -0.14393E+01  4500   0.799E+00    0.235E-01
DAV:   2    -0.128176028934E+03   -0.39311E-02   -0.53982E-02  4780   0.130E+00    0.219E-01
DAV:   3    -0.128175793601E+03    0.23533E-03   -0.86593E-03  4840   0.110E+00    0.133E-01
DAV:   4    -0.128175502553E+03    0.29105E-03   -0.16455E-03  5550   0.663E-01    0.645E-02
DAV:   5    -0.128175553969E+03   -0.51416E-04   -0.21378E-03  5120   0.103E+00    0.753E-02
DAV:   6    -0.128175267123E+03    0.28685E-03   -0.72566E-04  5200   0.556E-01    0.118E-02
DAV:   7    -0.128175292665E+03   -0.25542E-04   -0.32138E-04  4850   0.806E-02    0.131E-02
DAV:   8    -0.128175294982E+03   -0.23166E-05   -0.64016E-05  4510   0.490E-02
   4 F= -.12817529E+03 E0= -.12813573E+03  d E =-.126954E-01
quench:  g(F)=  0.000E+00 g(S)=  0.000E+00 dE (1.order)= 0.000E+00
 bond charge predicted
       N       E                     dE             d eps       ncg     rms          rms(c)
DAV:   1    -0.128179423598E+03   -0.41309E-02   -0.69158E+00  4500   0.557E+00    0.149E-01
DAV:   2    -0.128180857464E+03   -0.14339E-02   -0.20527E-02  4710   0.603E-01    0.112E-01
DAV:   3    -0.128180725922E+03    0.13154E-03   -0.21554E-03  4890   0.554E-01    0.944E-02
DAV:   4    -0.128180537648E+03    0.18827E-03   -0.78319E-04  5240   0.533E-01    0.287E-02
DAV:   5    -0.128180623537E+03   -0.85889E-04   -0.70945E-04  7060   0.574E-01    0.428E-02
DAV:   6    -0.128180503013E+03    0.12052E-03   -0.27626E-04  6320   0.355E-01    0.791E-03
DAV:   7    -0.128180506481E+03   -0.34673E-05   -0.62634E-05  4740   0.411E-02
   5 F= -.12818051E+03 E0= -.12814071E+03  d E =-.521150E-02
quench:  g(F)=  0.000E+00 g(S)=  0.000E+00 dE (1.order)= 0.000E+00
 bond charge predicted
       N       E                     dE             d eps       ncg     rms          rms(c)
DAV:   1    -0.128179997557E+03    0.50546E-03   -0.15111E+01  4500   0.798E+00    0.210E-01
DAV:   2    -0.128185072308E+03   -0.50748E-02   -0.64295E-02  4590   0.909E-01    0.157E-01
DAV:   3    -0.128184909018E+03    0.16329E-03   -0.44461E-03  4570   0.625E-01    0.116E-01
DAV:   4    -0.128184822310E+03    0.86708E-04   -0.16375E-03  4770   0.845E-01    0.923E-02
DAV:   5    -0.128184788387E+03    0.33923E-04   -0.18490E-03  5340   0.100E+00    0.778E-02
DAV:   6    -0.128184487034E+03    0.30135E-03   -0.10377E-03  7870   0.593E-01    0.156E-02
DAV:   7    -0.128184499908E+03   -0.12874E-04   -0.24641E-04  5590   0.102E-01    0.110E-02
DAV:   8    -0.128184499092E+03    0.81590E-06   -0.39855E-05  4530   0.475E-02
   6 F= -.12818450E+03 E0= -.12814467E+03  d E =-.399261E-02
quench:  g(F)=  0.000E+00 g(S)=  0.000E+00 dE (1.order)= 0.000E+00
 bond charge predicted
       N       E                     dE             d eps       ncg     rms          rms(c)
DAV:   1    -0.128183593096E+03    0.90681E-03   -0.24616E+00  4560   0.295E+00    0.808E-02
DAV:   2    -0.128184831963E+03   -0.12389E-02   -0.14237E-02  5320   0.459E-01    0.715E-02
DAV:   3    -0.128184859163E+03   -0.27200E-04   -0.13063E-03  4900   0.441E-01    0.523E-02
DAV:   4    -0.128184828918E+03    0.30245E-04   -0.32232E-04  4900   0.362E-01    0.389E-02
DAV:   5    -0.128184795102E+03    0.33816E-04   -0.16586E-04  5330   0.275E-01    0.276E-02
DAV:   6    -0.128184770758E+03    0.24344E-04   -0.15980E-04  6310   0.149E-01    0.835E-03
DAV:   7    -0.128184774038E+03   -0.32805E-05   -0.46786E-05  4540   0.431E-02
   7 F= -.12818477E+03 E0= -.12814471E+03  d E =-.274946E-03
quench:  g(F)=  0.000E+00 g(S)=  0.000E+00 dE (1.order)= 0.000E+00
 bond charge predicted
       N       E                     dE             d eps       ncg     rms          rms(c)
DAV:   1    -0.128184674088E+03    0.96669E-04   -0.23712E-01  4540   0.917E-01    0.243E-02
DAV:   2    -0.128184792156E+03   -0.11807E-03   -0.13142E-03  5340   0.142E-01    0.223E-02
DAV:   3    -0.128184792477E+03   -0.32135E-06   -0.11590E-04  4730   0.122E-01    0.154E-02
DAV:   4    -0.128184790496E+03    0.19811E-05   -0.21350E-05  2730   0.889E-02
   8 F= -.12818479E+03 E0= -.12814478E+03  d E =-.164575E-04
quench:  g(F)=  0.000E+00 g(S)=  0.000E+00 dE (1.order)= 0.000E+00
 bond charge predicted
       N       E                     dE             d eps       ncg     rms          rms(c)
DAV:   1    -0.128184476627E+03    0.31585E-03   -0.46133E-01  4550   0.119E+00    0.309E-02
DAV:   2    -0.128184739420E+03   -0.26279E-03   -0.26098E-03  6260   0.278E-01    0.347E-02
DAV:   3    -0.128184729796E+03    0.96242E-05   -0.37048E-04  4750   0.309E-01    0.263E-02
DAV:   4    -0.128184717188E+03    0.12608E-04   -0.70486E-05  4820   0.118E-01    0.172E-02
DAV:   5    -0.128184712941E+03    0.42471E-05   -0.58109E-05  4770   0.592E-02
   9 F= -.12818471E+03 E0= -.12814476E+03  d E =0.775551E-04
quench:  g(F)=  0.000E+00 g(S)=  0.000E+00 dE (1.order)= 0.000E+00
 bond charge predicted
       N       E                     dE             d eps       ncg     rms          rms(c)
DAV:   1    -0.128183834880E+03    0.88231E-03   -0.96924E-01  4500   0.159E+00    0.364E-02
DAV:   2    -0.128184416827E+03   -0.58195E-03   -0.60718E-03  4890   0.209E-01    0.322E-02
DAV:   3    -0.128184412579E+03    0.42479E-05   -0.20403E-04  4860   0.132E-01    0.246E-02
DAV:   4    -0.128184406814E+03    0.57653E-05   -0.29087E-05  3300   0.940E-02
  10 F= -.12818441E+03 E0= -.12814452E+03  d E =0.306127E-03
quench:  g(F)=  0.000E+00 g(S)=  0.000E+00 dE (1.order)= 0.000E+00
 bond charge predicted
       N       E                     dE             d eps       ncg     rms          rms(c)
DAV:   1    -0.128178949867E+03    0.54627E-02   -0.75784E+00  4500   0.407E+00    0.823E-02
DAV:   2    -0.128183780770E+03   -0.48309E-02   -0.48573E-02  5580   0.668E-01    0.971E-02
DAV:   3    -0.128183754503E+03    0.26267E-04   -0.21952E-03  4860   0.660E-01    0.796E-02
DAV:   4    -0.128183664379E+03    0.90123E-04   -0.35888E-04  4800   0.325E-01    0.659E-02
DAV:   5    -0.128183536209E+03    0.12817E-03   -0.37354E-04  4820   0.102E-01    0.311E-02
DAV:   6    -0.128183517782E+03    0.18426E-04   -0.21136E-04  5590   0.140E-01    0.176E-02
DAV:   7    -0.128183516234E+03    0.15482E-05   -0.34005E-05  3910   0.826E-02
  11 F= -.12818352E+03 E0= -.12814359E+03  d E =0.890580E-03
quench:  g(F)=  0.000E+00 g(S)=  0.000E+00 dE (1.order)= 0.000E+00
 bond charge predicted
       N       E                     dE             d eps       ncg     rms          rms(c)
DAV:   1    -0.128003866105E+03    0.17965E+00   -0.23648E+02  4500   0.298E+01    0.884E-01
DAV:   2    -0.128146571566E+03   -0.14271E+00   -0.16394E+00  5130   0.528E+00    0.834E-01
DAV:   3    -0.128143039307E+03    0.35323E-02   -0.13173E-01  4900   0.440E+00    0.482E-01
DAV:   4    -0.128141682773E+03    0.13565E-02   -0.30633E-02  5090   0.334E+00    0.423E-01
DAV:   5    -0.128138154342E+03    0.35284E-02   -0.21275E-02  5110   0.314E+00    0.304E-01
DAV:   6    -0.128135403336E+03    0.27510E-02   -0.19280E-02  6530   0.137E+00    0.768E-02
DAV:   7    -0.128135686863E+03   -0.28353E-03   -0.51163E-03  4690   0.389E-01    0.686E-02
DAV:   8    -0.128135649996E+03    0.36867E-04   -0.95182E-04  4890   0.310E-01    0.390E-02
DAV:   9    -0.128135609558E+03    0.40438E-04   -0.23105E-04  5650   0.140E-01    0.130E-02
DAV:  10    -0.128135619334E+03   -0.97761E-05   -0.11945E-04  4670   0.844E-02    0.853E-03
DAV:  11    -0.128135620694E+03   -0.13594E-05   -0.14349E-05  3020   0.463E-02
  12 F= -.12813562E+03 E0= -.12809484E+03  d E =0.478955E-01
quench:  g(F)=  0.000E+00 g(S)=  0.000E+00 dE (1.order)= 0.000E+00
 bond charge predicted
       N       E                     dE             d eps       ncg     rms          rms(c)
DAV:   1    -0.128129191398E+03    0.64279E-02   -0.78184E+01  4500   0.164E+01    0.443E-01
DAV:   2    -0.128178749351E+03   -0.49558E-01   -0.53951E-01  5660   0.305E+00    0.471E-01
DAV:   3    -0.128177684561E+03    0.10648E-02   -0.38298E-02  4810   0.240E+00    0.273E-01
DAV:   4    -0.128177205205E+03    0.47936E-03   -0.79590E-03  4870   0.164E+00    0.234E-01
DAV:   5    -0.128176450164E+03    0.75504E-03   -0.61472E-03  5090   0.169E+00    0.182E-01
DAV:   6    -0.128175364861E+03    0.10853E-02   -0.57872E-03  6470   0.818E-01    0.439E-02
DAV:   7    -0.128175462775E+03   -0.97914E-04   -0.16518E-03  4660   0.257E-01    0.346E-02
DAV:   8    -0.128175449899E+03    0.12875E-04   -0.30184E-04  4880   0.168E-01    0.192E-02
DAV:   9    -0.128175443691E+03    0.62089E-05   -0.67082E-05  5000   0.769E-02
  13 F= -.12817544E+03 E0= -.12813583E+03  d E =-.398230E-01
quench:  g(F)=  0.000E+00 g(S)=  0.000E+00 dE (1.order)= 0.000E+00
 bond charge predicted
       N       E                     dE             d eps       ncg     rms          rms(c)
DAV:   1    -0.128174217320E+03    0.12326E-02   -0.78892E+00  4500   0.511E+00    0.129E-01
DAV:   2    -0.128178473705E+03   -0.42564E-02   -0.46129E-02  5160   0.764E-01    0.122E-01
DAV:   3    -0.128178425948E+03    0.47757E-04   -0.29107E-03  4960   0.584E-01    0.824E-02
DAV:   4    -0.128178346396E+03    0.79552E-04   -0.49731E-04  4760   0.405E-01    0.648E-02
DAV:   5    -0.128178369241E+03   -0.22845E-04   -0.61612E-04  5590   0.562E-01    0.601E-02
DAV:   6    -0.128178209293E+03    0.15995E-03   -0.57401E-04  7500   0.375E-01    0.175E-02
DAV:   7    -0.128178214417E+03   -0.51247E-05   -0.15168E-04  4980   0.813E-02    0.101E-02
DAV:   8    -0.128178212878E+03    0.15397E-05   -0.30349E-05  3800   0.421E-02
  14 F= -.12817821E+03 E0= -.12813875E+03  d E =-.276919E-02
quench:  g(F)=  0.000E+00 g(S)=  0.000E+00 dE (1.order)= 0.000E+00
 bond charge predicted
       N       E                     dE             d eps       ncg     rms          rms(c)
DAV:   1    -0.128179087425E+03   -0.87301E-03   -0.56610E+00  4500   0.493E+00    0.137E-01
DAV:   2    -0.128181164890E+03   -0.20775E-02   -0.25063E-02  4760   0.742E-01    0.125E-01
DAV:   3    -0.128181143413E+03    0.21477E-04   -0.31611E-03  4770   0.626E-01    0.851E-02
DAV:   4    -0.128181027173E+03    0.11624E-03   -0.58783E-04  5320   0.477E-01    0.538E-02
DAV:   5    -0.128181060467E+03   -0.33294E-04   -0.84133E-04  5360   0.679E-01    0.459E-02
DAV:   6    -0.128180926752E+03    0.13371E-03   -0.44094E-04  7670   0.404E-01    0.859E-03
DAV:   7    -0.128180933591E+03   -0.68392E-05   -0.12858E-04  4720   0.662E-02    0.801E-03
DAV:   8    -0.128180935028E+03   -0.14367E-05   -0.27849E-05  3570   0.261E-02
  15 F= -.12818094E+03 E0= -.12814122E+03  d E =-.272215E-02
quench:  g(F)=  0.000E+00 g(S)=  0.000E+00 dE (1.order)= 0.000E+00
 bond charge predicted
       N       E                     dE             d eps       ncg     rms          rms(c)
DAV:   1    -0.128181561867E+03   -0.62828E-03   -0.86581E-01  4500   0.183E+00    0.521E-02
DAV:   2    -0.128181946608E+03   -0.38474E-03   -0.45676E-03  5430   0.303E-01    0.478E-02
DAV:   3    -0.128181949066E+03   -0.24580E-05   -0.51648E-04  4840   0.262E-01    0.312E-02
DAV:   4    -0.128181943075E+03    0.59913E-05   -0.11102E-04  4860   0.213E-01    0.245E-02
DAV:   5    -0.128181931761E+03    0.11314E-04   -0.90291E-05  3760   0.217E-01    0.178E-02
DAV:   6    -0.128181918170E+03    0.13592E-04   -0.52620E-05  4070   0.110E-01    0.479E-03
DAV:   7    -0.128181920867E+03   -0.26967E-05   -0.32439E-05  3570   0.305E-02
  16 F= -.12818192E+03 E0= -.12814211E+03  d E =-.985838E-03
quench:  g(F)=  0.000E+00 g(S)=  0.000E+00 dE (1.order)= 0.000E+00
 bond charge predicted
       N       E                     dE             d eps       ncg     rms          rms(c)
DAV:   1    -0.128182306701E+03   -0.38853E-03   -0.13215E+00  4500   0.230E+00    0.661E-02
DAV:   2    -0.128182857943E+03   -0.55124E-03   -0.68026E-03  5280   0.374E-01    0.595E-02
DAV:   3    -0.128182865256E+03   -0.73126E-05   -0.82375E-04  4850   0.321E-01    0.385E-02
DAV:   4    -0.128182857182E+03    0.80732E-05   -0.17990E-04  4900   0.276E-01    0.305E-02
DAV:   5    -0.128182837835E+03    0.19348E-04   -0.15441E-04  4770   0.284E-01    0.218E-02
DAV:   6    -0.128182816516E+03    0.21318E-04   -0.82665E-05  4980   0.138E-01    0.491E-03
DAV:   7    -0.128182820132E+03   -0.36156E-05   -0.42172E-05  3940   0.322E-02
  17 F= -.12818282E+03 E0= -.12814291E+03  d E =-.899265E-03
quench:  g(F)=  0.000E+00 g(S)=  0.000E+00 dE (1.order)= 0.000E+00
 bond charge predicted
       N       E                     dE             d eps       ncg     rms          rms(c)
DAV:   1    -0.128182996525E+03   -0.18001E-03   -0.51457E-01  4590   0.147E+00    0.419E-02
DAV:   2    -0.128183173859E+03   -0.17733E-03   -0.23016E-03  5080   0.224E-01    0.370E-02
DAV:   3    -0.128183174937E+03   -0.10777E-05   -0.30560E-04  4560   0.188E-01    0.241E-02
DAV:   4    -0.128183167972E+03    0.69649E-05   -0.55488E-05  4300   0.148E-01
  18 F= -.12818317E+03 E0= -.12814324E+03  d E =-.347840E-03
quench:  g(F)=  0.000E+00 g(S)=  0.000E+00 dE (1.order)= 0.000E+00
 bond charge predicted
       N       E                     dE             d eps       ncg     rms          rms(c)
DAV:   1    -0.128183232205E+03   -0.57268E-04   -0.41760E-01  4560   0.141E+00    0.474E-02
DAV:   2    -0.128183398168E+03   -0.16596E-03   -0.13434E-03  5140   0.541E-01    0.589E-02
DAV:   3    -0.128183289862E+03    0.10831E-03   -0.72387E-04  4740   0.509E-01    0.302E-02
DAV:   4    -0.128183278528E+03    0.11334E-04   -0.24513E-04  4590   0.176E-01    0.215E-02
DAV:   5    -0.128183278024E+03    0.50366E-06   -0.13317E-04  4780   0.121E-01    0.585E-03
DAV:   6    -0.128183280189E+03   -0.21648E-05   -0.31952E-05  3780   0.375E-02
  19 F= -.12818328E+03 E0= -.12814336E+03  d E =-.112217E-03
quench:  g(F)=  0.000E+00 g(S)=  0.000E+00 dE (1.order)= 0.000E+00
 bond charge predicted
       N       E                     dE             d eps       ncg     rms          rms(c)
DAV:   1    -0.128183269853E+03    0.81718E-05   -0.85900E-02  4520   0.544E-01    0.152E-02
DAV:   2    -0.128183319157E+03   -0.49304E-04   -0.55915E-04  4800   0.890E-02    0.131E-02
DAV:   3    -0.128183320659E+03   -0.15022E-05   -0.46234E-05  4350   0.784E-02
  20 F= -.12818332E+03 E0= -.12814336E+03  d E =-.404699E-04
quench:  g(F)=  0.000E+00 g(S)=  0.000E+00 dE (1.order)= 0.000E+00
 bond charge predicted
       N       E                     dE             d eps       ncg     rms          rms(c)
DAV:   1    -0.128183260290E+03    0.58867E-04   -0.71454E-02  4640   0.460E-01    0.130E-02
DAV:   2    -0.128183306009E+03   -0.45719E-04   -0.42276E-04  5940   0.148E-01    0.166E-02
DAV:   3    -0.128183298911E+03    0.70980E-05   -0.74240E-05  4470   0.143E-01
  21 F= -.12818330E+03 E0= -.12814333E+03  d E =0.217483E-04
quench:  g(F)=  0.000E+00 g(S)=  0.000E+00 dE (1.order)= 0.000E+00
 bond charge predicted
       N       E                     dE             d eps       ncg     rms          rms(c)
DAV:   1    -0.128183025907E+03    0.28010E-03   -0.37305E-01  4570   0.936E-01    0.193E-02
DAV:   2    -0.128183256502E+03   -0.23060E-03   -0.23566E-03  4570   0.113E-01    0.212E-02
DAV:   3    -0.128183252449E+03    0.40539E-05   -0.48118E-05  3780   0.411E-02
  22 F= -.12818325E+03 E0= -.12814331E+03  d E =0.464622E-04
quench:  g(F)=  0.000E+00 g(S)=  0.000E+00 dE (1.order)= 0.000E+00
 bond charge predicted
       N       E                     dE             d eps       ncg     rms          rms(c)
DAV:   1    -0.128182300226E+03    0.95628E-03   -0.15772E+00  4500   0.187E+00    0.377E-02
DAV:   2    -0.128183260303E+03   -0.96008E-03   -0.97875E-03  4870   0.240E-01    0.445E-02
DAV:   3    -0.128183248868E+03    0.11435E-04   -0.26951E-04  4870   0.152E-01    0.365E-02
DAV:   4    -0.128183240494E+03    0.83743E-05   -0.40365E-05  3560   0.126E-01
  23 F= -.12818324E+03 E0= -.12814331E+03  d E =0.119549E-04
quench:  g(F)=  0.000E+00 g(S)=  0.000E+00 dE (1.order)= 0.000E+00
 bond charge predicted
       N       E                     dE             d eps       ncg     rms          rms(c)
DAV:   1    -0.128130211249E+03    0.53038E-01   -0.80451E+01  4500   0.133E+01    0.320E-01
DAV:   2    -0.128187279031E+03   -0.57068E-01   -0.59572E-01  4760   0.174E+00    0.317E-01
DAV:   3    -0.128186498393E+03    0.78064E-03   -0.17328E-02  4670   0.858E-01    0.224E-01
DAV:   4    -0.128186111051E+03    0.38734E-03   -0.15596E-03  5010   0.576E-01    0.198E-01
DAV:   5    -0.128185627018E+03    0.48403E-03   -0.82751E-04  6080   0.530E-01    0.168E-01
DAV:   6    -0.128184747067E+03    0.87995E-03   -0.20676E-03  7040   0.550E-01    0.757E-02
DAV:   7    -0.128184619874E+03    0.12719E-03   -0.16975E-03  6240   0.318E-01    0.298E-02
DAV:   8    -0.128184629815E+03   -0.99411E-05   -0.29735E-04  4710   0.921E-02    0.222E-02
DAV:   9    -0.128184619528E+03    0.10287E-04   -0.77778E-05  4730   0.647E-02    0.107E-02
DAV:  10    -0.128184619738E+03   -0.20931E-06   -0.12187E-05  2920   0.404E-02
  24 F= -.12818462E+03 E0= -.12814442E+03  d E =-.137924E-02
quench:  g(F)=  0.000E+00 g(S)=  0.000E+00 dE (1.order)= 0.000E+00
 bond charge predicted
       N       E                     dE             d eps       ncg     rms          rms(c)
DAV:   1    -0.128183519212E+03    0.11003E-02   -0.31886E+00  4500   0.373E+00    0.109E-01
DAV:   2    -0.128184554506E+03   -0.10353E-02   -0.13597E-02  4690   0.543E-01    0.913E-02
DAV:   3    -0.128184610050E+03   -0.55544E-04   -0.21229E-03  4760   0.589E-01    0.724E-02
DAV:   4    -0.128184574675E+03    0.35375E-04   -0.74192E-04  4800   0.585E-01    0.522E-02
DAV:   5    -0.128184479097E+03    0.95578E-04   -0.44385E-04  5000   0.488E-01    0.253E-02
DAV:   6    -0.128184461694E+03    0.17403E-04   -0.23050E-04  6610   0.183E-01    0.819E-03
DAV:   7    -0.128184464426E+03   -0.27326E-05   -0.65139E-05  4760   0.564E-02
  25 F= -.12818446E+03 E0= -.12814446E+03  d E =0.155311E-03
quench:  g(F)=  0.000E+00 g(S)=  0.000E+00 dE (1.order)= 0.000E+00
 bond charge predicted
       N       E                     dE             d eps       ncg     rms          rms(c)
DAV:   1    -0.128167965247E+03    0.16496E-01   -0.24351E+01  4500   0.718E+00    0.150E-01
DAV:   2    -0.128184232861E+03   -0.16268E-01   -0.16639E-01  4730   0.858E-01    0.150E-01
DAV:   3    -0.128183992823E+03    0.24004E-03   -0.31433E-03  4780   0.333E-01    0.114E-01
DAV:   4    -0.128183883007E+03    0.10982E-03   -0.38148E-04  4970   0.323E-01    0.104E-01
DAV:   5    -0.128183704159E+03    0.17885E-03   -0.33190E-04  6150   0.363E-01    0.797E-02
DAV:   6    -0.128183473976E+03    0.23018E-03   -0.70357E-04  6920   0.290E-01    0.259E-02
DAV:   7    -0.128183472116E+03    0.18600E-05   -0.25470E-04  5850   0.127E-01    0.153E-02
DAV:   8    -0.128183472546E+03   -0.42909E-06   -0.56261E-05  4720   0.488E-02
  26 F= -.12818347E+03 E0= -.12814355E+03  d E =0.991881E-03
quench:  g(F)=  0.000E+00 g(S)=  0.000E+00 dE (1.order)= 0.000E+00
 bond charge predicted
       N       E                     dE             d eps       ncg     rms          rms(c)
DAV:   1    -0.127974081288E+03    0.20939E+00   -0.26995E+02  4500   0.253E+01    0.666E-01
DAV:   2    -0.128191110317E+03   -0.21703E+00   -0.22945E+00  4730   0.347E+00    0.606E-01
DAV:   3    -0.128188242020E+03    0.28683E-02   -0.70735E-02  4680   0.136E+00    0.391E-01
DAV:   4    -0.128186684186E+03    0.15578E-02   -0.62682E-03  5160   0.778E-01    0.336E-01
DAV:   5    -0.128185513582E+03    0.11706E-02   -0.23585E-03  5110   0.972E-01    0.286E-01
DAV:   6    -0.128183531440E+03    0.19821E-02   -0.50290E-03  7250   0.112E+00    0.175E-01
DAV:   7    -0.128182454088E+03    0.10774E-02   -0.53805E-03  6430   0.784E-01    0.467E-02
DAV:   8    -0.128182586224E+03   -0.13214E-03   -0.17456E-03  4720   0.222E-01    0.408E-02
DAV:   9    -0.128182566347E+03    0.19877E-04   -0.23960E-04  4680   0.124E-01    0.268E-02
DAV:  10    -0.128182555987E+03    0.10359E-04   -0.81486E-05  5020   0.687E-02    0.121E-02
DAV:  11    -0.128182560532E+03   -0.45444E-05   -0.20818E-05  3450   0.298E-02
  27 F= -.12818256E+03 E0= -.12814183E+03  d E =0.912014E-03
quench:  g(F)=  0.000E+00 g(S)=  0.000E+00 dE (1.order)= 0.000E+00
 bond charge predicted
       N       E                     dE             d eps       ncg     rms          rms(c)
DAV:   1    -0.128181662315E+03    0.89367E-03   -0.96358E+00  4500   0.641E+00    0.180E-01
DAV:   2    -0.128186057833E+03   -0.43955E-02   -0.49690E-02  4830   0.101E+00    0.161E-01
DAV:   3    -0.128186252779E+03   -0.19495E-03   -0.61865E-03  4700   0.113E+00    0.131E-01
DAV:   4    -0.128186024807E+03    0.22797E-03   -0.19554E-03  4950   0.985E-01    0.829E-02
DAV:   5    -0.128185792514E+03    0.23229E-03   -0.10104E-03  6250   0.720E-01    0.399E-02
DAV:   6    -0.128185741580E+03    0.50935E-04   -0.50952E-04  6950   0.306E-01    0.118E-02
DAV:   7    -0.128185752401E+03   -0.10821E-04   -0.19332E-04  4730   0.106E-01    0.116E-02
DAV:   8    -0.128185753521E+03   -0.11199E-05   -0.38088E-05  4080   0.373E-02
  28 F= -.12818575E+03 E0= -.12814617E+03  d E =-.319299E-02
quench:  g(F)=  0.000E+00 g(S)=  0.000E+00 dE (1.order)= 0.000E+00
 bond charge predicted
       N       E                     dE             d eps       ncg     rms          rms(c)
DAV:   1    -0.127994771510E+03    0.19098E+00   -0.25847E+02  4500   0.243E+01    0.659E-01
DAV:   2    -0.128199191913E+03   -0.20442E+00   -0.21689E+00  4750   0.340E+00    0.596E-01
DAV:   3    -0.128196794648E+03    0.23973E-02   -0.72631E-02  4810   0.165E+00    0.391E-01
DAV:   4    -0.128195745506E+03    0.10491E-02   -0.76743E-03  4960   0.112E+00    0.347E-01
DAV:   5    -0.128194453117E+03    0.12924E-02   -0.19731E-03  5230   0.739E-01    0.302E-01
DAV:   6    -0.128192000211E+03    0.24529E-02   -0.48833E-03  6140   0.644E-01    0.168E-01
DAV:   7    -0.128191147104E+03    0.85311E-03   -0.43589E-03  6280   0.572E-01    0.479E-02
DAV:   8    -0.128191227075E+03   -0.79972E-04   -0.11140E-03  4690   0.177E-01    0.373E-02
DAV:   9    -0.128191219258E+03    0.78178E-05   -0.21886E-04  4580   0.126E-01    0.251E-02
DAV:  10    -0.128191213915E+03    0.53424E-05   -0.37762E-05  4070   0.594E-02
  29 F= -.12819121E+03 E0= -.12815212E+03  d E =-.546039E-02
quench:  g(F)=  0.000E+00 g(S)=  0.000E+00 dE (1.order)= 0.000E+00
 bond charge predicted
       N       E                     dE             d eps       ncg     rms          rms(c)
DAV:   1    -0.128080633623E+03    0.11059E+00   -0.14648E+02  4500   0.188E+01    0.503E-01
DAV:   2    -0.128192475846E+03   -0.11184E+00   -0.11900E+00  4730   0.264E+00    0.454E-01
DAV:   3    -0.128191197733E+03    0.12781E-02   -0.41157E-02  4730   0.115E+00    0.297E-01
DAV:   4    -0.128190185620E+03    0.10121E-02   -0.34415E-03  4990   0.581E-01    0.251E-01
DAV:   5    -0.128189150690E+03    0.10349E-02   -0.17777E-03  5970   0.702E-01    0.185E-01
DAV:   6    -0.128188781392E+03    0.36930E-03   -0.41812E-03  6460   0.135E+00    0.136E-01
DAV:   7    -0.128187913476E+03    0.86792E-03   -0.35538E-03  7080   0.879E-01    0.356E-02
DAV:   8    -0.128187977601E+03   -0.64125E-04   -0.94429E-04  4730   0.118E-01    0.315E-02
DAV:   9    -0.128187960086E+03    0.17515E-04   -0.84123E-05  4780   0.741E-02    0.193E-02
DAV:  10    -0.128187951275E+03    0.88117E-05   -0.42979E-05  4110   0.519E-02
  30 F= -.12818795E+03 E0= -.12814811E+03  d E =0.326264E-02
quench:  g(F)=  0.000E+00 g(S)=  0.000E+00 dE (1.order)= 0.000E+00
 bond charge predicted
       N       E                     dE             d eps       ncg     rms          rms(c)
DAV:   1    -0.128186480350E+03    0.14797E-02   -0.45124E+00  4500   0.419E+00    0.111E-01
DAV:   2    -0.128188492033E+03   -0.20117E-02   -0.23096E-02  4750   0.632E-01    0.106E-01
DAV:   3    -0.128188459272E+03    0.32761E-04   -0.21088E-03  4600   0.497E-01    0.676E-02
DAV:   4    -0.128188371504E+03    0.87768E-04   -0.32123E-04  4900   0.294E-01    0.441E-02
DAV:   5    -0.128188488018E+03   -0.11651E-03   -0.59789E-04  5600   0.566E-01    0.545E-02
DAV:   6    -0.128188312331E+03    0.17569E-03   -0.38693E-04  6950   0.414E-01    0.104E-02
DAV:   7    -0.128188320422E+03   -0.80917E-05   -0.11472E-04  4720   0.511E-02    0.711E-03
DAV:   8    -0.128188319025E+03    0.13976E-05   -0.10863E-05  2840   0.289E-02
  31 F= -.12818832E+03 E0= -.12814832E+03  d E =-.367750E-03
quench:  g(F)=  0.000E+00 g(S)=  0.000E+00 dE (1.order)= 0.000E+00
 bond charge predicted
       N       E                     dE             d eps       ncg     rms          rms(c)
DAV:   1    -0.128187509447E+03    0.81098E-03   -0.31151E+00  4500   0.258E+00    0.545E-02
DAV:   2    -0.128189496220E+03   -0.19868E-02   -0.20353E-02  4640   0.307E-01    0.515E-02
DAV:   3    -0.128189474014E+03    0.22206E-04   -0.44123E-04  4550   0.115E-01    0.401E-02
DAV:   4    -0.128189459173E+03    0.14841E-04   -0.44942E-05  3900   0.110E-01    0.355E-02
DAV:   5    -0.128189438106E+03    0.21067E-04   -0.47189E-05  3610   0.143E-01    0.284E-02
DAV:   6    -0.128189410132E+03    0.27973E-04   -0.95906E-05  5200   0.129E-01    0.812E-03
DAV:   7    -0.128189411128E+03   -0.99540E-06   -0.39484E-05  4610   0.484E-02
  32 F= -.12818941E+03 E0= -.12814950E+03  d E =-.109210E-02
quench:  g(F)=  0.000E+00 g(S)=  0.000E+00 dE (1.order)= 0.000E+00
 bond charge predicted
       N       E                     dE             d eps       ncg     rms          rms(c)
DAV:   1    -0.128189603238E+03   -0.19311E-03   -0.37118E-01  4500   0.102E+00    0.245E-02
DAV:   2    -0.128189822710E+03   -0.21947E-03   -0.23182E-03  4770   0.120E-01    0.190E-02
DAV:   3    -0.128189820731E+03    0.19785E-05   -0.58861E-05  3740   0.823E-02
  33 F= -.12818982E+03 E0= -.12814997E+03  d E =-.409603E-03
quench:  g(F)=  0.000E+00 g(S)=  0.000E+00 dE (1.order)= 0.000E+00
 bond charge predicted
       N       E                     dE             d eps       ncg     rms          rms(c)
DAV:   1    -0.128145377543E+03    0.44445E-01   -0.81432E+01  4500   0.186E+01    0.518E-01
DAV:   2    -0.128179157556E+03   -0.33780E-01   -0.40384E-01  4730   0.283E+00    0.510E-01
DAV:   3    -0.128177177553E+03    0.19800E-02   -0.39232E-02  4860   0.224E+00    0.319E-01
DAV:   4    -0.128175427464E+03    0.17501E-02   -0.79835E-03  5120   0.162E+00    0.227E-01
DAV:   5    -0.128176166305E+03   -0.73884E-03   -0.11766E-02  5930   0.248E+00    0.181E-01
DAV:   6    -0.128173910989E+03    0.22553E-02   -0.85267E-03  7810   0.186E+00    0.483E-02
DAV:   7    -0.128173827663E+03    0.83326E-04   -0.20266E-03  6720   0.474E-01    0.268E-02
DAV:   8    -0.128173874146E+03   -0.46483E-04   -0.73847E-04  4760   0.123E-01    0.266E-02
DAV:   9    -0.128173857642E+03    0.16504E-04   -0.57572E-05  4650   0.647E-02    0.152E-02
DAV:  10    -0.128173854315E+03    0.33277E-05   -0.30675E-05  3540   0.655E-02
  34 F= -.12817385E+03 E0= -.12813192E+03  d E =0.159664E-01
quench:  g(F)=  0.000E+00 g(S)=  0.000E+00 dE (1.order)= 0.000E+00
 bond charge predicted
       N       E                     dE             d eps       ncg     rms          rms(c)
DAV:   1    -0.128154594865E+03    0.19263E-01   -0.63533E+01  4500   0.163E+01    0.470E-01
DAV:   2    -0.128186866952E+03   -0.32272E-01   -0.36617E-01  5200   0.274E+00    0.412E-01
DAV:   3    -0.128188647270E+03   -0.17803E-02   -0.45935E-02  4890   0.328E+00    0.338E-01
DAV:   4    -0.128186380062E+03    0.22672E-02   -0.12317E-02  5220   0.242E+00    0.197E-01
DAV:   5    -0.128185293580E+03    0.10865E-02   -0.57913E-03  6440   0.151E+00    0.116E-01
DAV:   6    -0.128184978569E+03    0.31501E-03   -0.38965E-03  5240   0.755E-01    0.391E-02
DAV:   7    -0.128185100513E+03   -0.12194E-03   -0.17257E-03  4820   0.241E-01    0.334E-02
DAV:   8    -0.128185087883E+03    0.12631E-04   -0.31834E-04  4750   0.165E-01    0.171E-02
DAV:   9    -0.128185079961E+03    0.79217E-05   -0.37816E-05  3680   0.732E-02
  35 F= -.12818508E+03 E0= -.12814634E+03  d E =-.112256E-01
quench:  g(F)=  0.000E+00 g(S)=  0.000E+00 dE (1.order)= 0.000E+00
 bond charge predicted
       N       E                     dE             d eps       ncg     rms          rms(c)
DAV:   1    -0.128187976915E+03   -0.28890E-02   -0.77432E+00  4500   0.520E+00    0.150E-01
DAV:   2    -0.128192364622E+03   -0.43877E-02   -0.50155E-02  4750   0.795E-01    0.119E-01
DAV:   3    -0.128192489165E+03   -0.12454E-03   -0.40340E-03  4710   0.731E-01    0.944E-02
DAV:   4    -0.128192398199E+03    0.90967E-04   -0.94331E-04  4860   0.641E-01    0.654E-02
DAV:   5    -0.128192318540E+03    0.79658E-04   -0.55300E-04  5920   0.525E-01    0.492E-02
DAV:   6    -0.128192223831E+03    0.94710E-04   -0.40047E-04  6850   0.306E-01    0.152E-02
DAV:   7    -0.128192231213E+03   -0.73821E-05   -0.13586E-04  4770   0.779E-02    0.919E-03
DAV:   8    -0.128192229926E+03    0.12871E-05   -0.17776E-05  2690   0.410E-02
  36 F= -.12819223E+03 E0= -.12815278E+03  d E =-.714996E-02
quench:  g(F)=  0.000E+00 g(S)=  0.000E+00 dE (1.order)= 0.000E+00
 bond charge predicted
       N       E                     dE             d eps       ncg     rms          rms(c)
DAV:   1    -0.128192334940E+03   -0.10373E-03   -0.13683E-01  4520   0.613E-01    0.135E-02
DAV:   2    -0.128192415476E+03   -0.80536E-04   -0.83254E-04  4580   0.708E-02    0.120E-02
DAV:   3    -0.128192413667E+03    0.18091E-05   -0.16024E-05  3160   0.310E-02
  37 F= -.12819241E+03 E0= -.12815300E+03  d E =-.183741E-03
quench:  g(F)=  0.000E+00 g(S)=  0.000E+00 dE (1.order)= 0.000E+00
 bond charge predicted
       N       E                     dE             d eps       ncg     rms          rms(c)
DAV:   1    -0.128193624747E+03   -0.12093E-02   -0.12644E+00  4500   0.191E+00    0.496E-02
DAV:   2    -0.128194386956E+03   -0.76221E-03   -0.82860E-03  4600   0.284E-01    0.435E-02
DAV:   3    -0.128194401883E+03   -0.14927E-04   -0.53606E-04  4830   0.281E-01    0.355E-02
DAV:   4    -0.128194384040E+03    0.17843E-04   -0.12753E-04  4770   0.229E-01    0.266E-02
DAV:   5    -0.128194366758E+03    0.17283E-04   -0.46300E-05  4000   0.122E-01    0.196E-02
DAV:   6    -0.128194359028E+03    0.77300E-05   -0.68286E-05  5280   0.898E-02
  38 F= -.12819436E+03 E0= -.12815481E+03  d E =-.194536E-02
quench:  g(F)=  0.000E+00 g(S)=  0.000E+00 dE (1.order)= 0.000E+00
 bond charge predicted
       N       E                     dE             d eps       ncg     rms          rms(c)
DAV:   1    -0.128194373384E+03   -0.66262E-05   -0.77423E-01  4510   0.170E+00    0.524E-02
DAV:   2    -0.128194798469E+03   -0.42508E-03   -0.50632E-03  5190   0.306E-01    0.439E-02
DAV:   3    -0.128194830536E+03   -0.32067E-04   -0.62156E-04  4890   0.345E-01    0.356E-02
DAV:   4    -0.128194809391E+03    0.21144E-04   -0.17383E-04  4940   0.271E-01    0.216E-02
DAV:   5    -0.128194796194E+03    0.13197E-04   -0.56427E-05  3410   0.163E-01    0.151E-02
DAV:   6    -0.128194791312E+03    0.48827E-05   -0.58021E-05  4860   0.849E-02
  39 F= -.12819479E+03 E0= -.12815500E+03  d E =-.432284E-03
quench:  g(F)=  0.000E+00 g(S)=  0.000E+00 dE (1.order)= 0.000E+00
 bond charge predicted
       N       E                     dE             d eps       ncg     rms          rms(c)
DAV:   1    -0.128195047146E+03   -0.25095E-03   -0.94865E-02  4620   0.537E-01    0.139E-02
DAV:   2    -0.128195103778E+03   -0.56631E-04   -0.56777E-04  6230   0.126E-01    0.160E-02
DAV:   3    -0.128195102894E+03    0.88367E-06   -0.67936E-05  4490   0.134E-01
  40 F= -.12819510E+03 E0= -.12815537E+03  d E =-.311583E-03
quench:  g(F)=  0.000E+00 g(S)=  0.000E+00 dE (1.order)= 0.000E+00
 bond charge predicted
       N       E                     dE             d eps       ncg     rms          rms(c)
DAV:   1    -0.128195714515E+03   -0.61074E-03   -0.63301E-01  4500   0.148E+00    0.396E-02
DAV:   2    -0.128196039845E+03   -0.32533E-03   -0.35693E-03  4550   0.209E-01    0.364E-02
DAV:   3    -0.128196034826E+03    0.50188E-05   -0.21884E-04  4750   0.142E-01    0.254E-02
DAV:   4    -0.128196023883E+03    0.10942E-04   -0.35444E-05  3950   0.101E-01    0.185E-02
DAV:   5    -0.128196037596E+03   -0.13713E-04   -0.67979E-05  3360   0.187E-01    0.197E-02
DAV:   6    -0.128196014181E+03    0.23416E-04   -0.48472E-05  3120   0.159E-01    0.394E-03
DAV:   7    -0.128196015866E+03   -0.16852E-05   -0.20651E-05  3220   0.239E-02
  41 F= -.12819602E+03 E0= -.12815636E+03  d E =-.912972E-03
quench:  g(F)=  0.000E+00 g(S)=  0.000E+00 dE (1.order)= 0.000E+00
 bond charge predicted
       N       E                     dE             d eps       ncg     rms          rms(c)
DAV:   1    -0.128196264336E+03   -0.25016E-03   -0.11456E-01  4680   0.662E-01    0.186E-02
DAV:   2    -0.128196315548E+03   -0.51212E-04   -0.62397E-04  4760   0.100E-01    0.157E-02
DAV:   3    -0.128196316177E+03   -0.62926E-06   -0.60209E-05  4430   0.788E-02
  42 F= -.12819632E+03 E0= -.12815663E+03  d E =-.300311E-03
quench:  g(F)=  0.000E+00 g(S)=  0.000E+00 dE (1.order)= 0.000E+00
 bond charge predicted
       N       E                     dE             d eps       ncg     rms          rms(c)
DAV:   1    -0.128185433269E+03    0.10882E-01   -0.16229E+01  4500   0.707E+00    0.172E-01
DAV:   2    -0.128194233634E+03   -0.88004E-02   -0.95739E-02  4720   0.835E-01    0.149E-01
DAV:   3    -0.128194066205E+03    0.16743E-03   -0.37459E-03  4760   0.614E-01    0.112E-01
DAV:   4    -0.128193976784E+03    0.89422E-04   -0.10068E-03  5010   0.657E-01    0.971E-02
DAV:   5    -0.128193758713E+03    0.21807E-03   -0.91193E-04  6320   0.632E-01    0.684E-02
DAV:   6    -0.128193581724E+03    0.17699E-03   -0.88836E-04  7210   0.392E-01    0.158E-02
DAV:   7    -0.128193594316E+03   -0.12591E-04   -0.21362E-04  5130   0.102E-01    0.112E-02
DAV:   8    -0.128193592211E+03    0.21051E-05   -0.33583E-05  4080   0.405E-02
  43 F= -.12819359E+03 E0= -.12815368E+03  d E =0.272397E-02
quench:  g(F)=  0.000E+00 g(S)=  0.000E+00 dE (1.order)= 0.000E+00
 bond charge predicted
       N       E                     dE             d eps       ncg     rms          rms(c)
DAV:   1    -0.128192765213E+03    0.82910E-03   -0.45463E+00  4500   0.329E+00    0.686E-02
DAV:   2    -0.128195607876E+03   -0.28427E-02   -0.29181E-02  4640   0.374E-01    0.636E-02
DAV:   3    -0.128195563799E+03    0.44077E-04   -0.54654E-04  4840   0.145E-01    0.498E-02
DAV:   4    -0.128195540409E+03    0.23390E-04   -0.83111E-05  4930   0.176E-01    0.447E-02
DAV:   5    -0.128195506517E+03    0.33892E-04   -0.14460E-04  4650   0.250E-01    0.317E-02
DAV:   6    -0.128195461631E+03    0.44886E-04   -0.16021E-04  5570   0.188E-01    0.807E-03
DAV:   7    -0.128195466481E+03   -0.48499E-05   -0.56107E-05  4900   0.420E-02
  44 F= -.12819547E+03 E0= -.12815570E+03  d E =-.187427E-02
quench:  g(F)=  0.000E+00 g(S)=  0.000E+00 dE (1.order)= 0.000E+00
 bond charge predicted
       N       E                     dE             d eps       ncg     rms          rms(c)
DAV:   1    -0.128183754814E+03    0.11707E-01   -0.15289E+01  4500   0.627E+00    0.134E-01
DAV:   2    -0.128193076179E+03   -0.93214E-02   -0.96873E-02  4750   0.684E-01    0.123E-01
DAV:   3    -0.128192882171E+03    0.19401E-03   -0.18578E-03  4770   0.207E-01    0.940E-02
DAV:   4    -0.128192716140E+03    0.16603E-03   -0.25383E-04  4840   0.212E-01    0.754E-02
DAV:   5    -0.128192533481E+03    0.18266E-03   -0.47501E-04  6440   0.236E-01    0.257E-02
DAV:   6    -0.128192570051E+03   -0.36569E-04   -0.28940E-04  5890   0.361E-01    0.301E-02
DAV:   7    -0.128192515739E+03    0.54312E-04   -0.13536E-04  4850   0.245E-01    0.997E-03
DAV:   8    -0.128192518490E+03   -0.27512E-05   -0.49979E-05  4610   0.297E-02
  45 F= -.12819252E+03 E0= -.12815270E+03  d E =0.294799E-02
quench:  g(F)=  0.000E+00 g(S)=  0.000E+00 dE (1.order)= 0.000E+00
 bond charge predicted
       N       E                     dE             d eps       ncg     rms          rms(c)
DAV:   1    -0.128072065773E+03    0.12045E+00   -0.16378E+02  4500   0.209E+01    0.531E-01
DAV:   2    -0.128190993866E+03   -0.11893E+00   -0.12676E+00  4760   0.263E+00    0.476E-01
DAV:   3    -0.128188806205E+03    0.21877E-02   -0.37970E-02  4840   0.126E+00    0.321E-01
DAV:   4    -0.128187899288E+03    0.90692E-03   -0.54167E-03  5200   0.119E+00    0.281E-01
DAV:   5    -0.128186408655E+03    0.14906E-02   -0.38604E-03  5760   0.130E+00    0.206E-01
DAV:   6    -0.128184977817E+03    0.14308E-02   -0.62851E-03  7050   0.965E-01    0.802E-02
DAV:   7    -0.128184942994E+03    0.34824E-04   -0.21387E-03  6030   0.483E-01    0.357E-02
DAV:   8    -0.128184949445E+03   -0.64511E-05   -0.51296E-04  4680   0.136E-01    0.274E-02
DAV:   9    -0.128184934621E+03    0.14824E-04   -0.13949E-04  4840   0.116E-01    0.135E-02
DAV:  10    -0.128184934863E+03   -0.24233E-06   -0.27143E-05  3590   0.463E-02
  46 F= -.12818493E+03 E0= -.12814509E+03  d E =0.758363E-02
quench:  g(F)=  0.000E+00 g(S)=  0.000E+00 dE (1.order)= 0.000E+00
 bond charge predicted
       N       E                     dE             d eps       ncg     rms          rms(c)
DAV:   1    -0.128150804361E+03    0.34130E-01   -0.52735E+01  4500   0.117E+01    0.273E-01
DAV:   2    -0.128184886992E+03   -0.34083E-01   -0.35866E-01  4740   0.137E+00    0.248E-01
DAV:   3    -0.128184231181E+03    0.65581E-03   -0.93316E-03  4720   0.606E-01    0.178E-01
DAV:   4    -0.128183886652E+03    0.34453E-03   -0.12768E-03  5160   0.578E-01    0.153E-01
DAV:   5    -0.128183539647E+03    0.34701E-03   -0.15193E-03  5930   0.838E-01    0.116E-01
DAV:   6    -0.128183002996E+03    0.53665E-03   -0.20819E-03  7600   0.694E-01    0.379E-02
DAV:   7    -0.128183009916E+03   -0.69198E-05   -0.71022E-04  6020   0.246E-01    0.208E-02
DAV:   8    -0.128183007833E+03    0.20826E-05   -0.15337E-04  4700   0.703E-02    0.141E-02
DAV:   9    -0.128183005447E+03    0.23865E-05   -0.38030E-05  4250   0.545E-02
  47 F= -.12818301E+03 E0= -.12814307E+03  d E =0.192942E-02
quench:  g(F)=  0.000E+00 g(S)=  0.000E+00 dE (1.order)= 0.000E+00
 bond charge predicted
       N       E                     dE             d eps       ncg     rms          rms(c)
DAV:   1    -0.128182152524E+03    0.85531E-03   -0.50514E+00  4500   0.474E+00    0.135E-01
DAV:   2    -0.128183356942E+03   -0.12044E-02   -0.17014E-02  4790   0.686E-01    0.123E-01
DAV:   3    -0.128183304241E+03    0.52702E-04   -0.28239E-03  4660   0.663E-01    0.836E-02
DAV:   4    -0.128183283977E+03    0.20264E-04   -0.10005E-03  5100   0.672E-01    0.673E-02
DAV:   5    -0.128183111344E+03    0.17263E-03   -0.89757E-04  6390   0.663E-01    0.258E-02
DAV:   6    -0.128183082735E+03    0.28609E-04   -0.34653E-04  6920   0.239E-01    0.882E-03
DAV:   7    -0.128183088901E+03   -0.61658E-05   -0.10596E-04  4710   0.596E-02    0.854E-03
DAV:   8    -0.128183089541E+03   -0.64013E-06   -0.17727E-05  2780   0.231E-02
  48 F= -.12818309E+03 E0= -.12814306E+03  d E =-.840942E-04
quench:  g(F)=  0.000E+00 g(S)=  0.000E+00 dE (1.order)= 0.000E+00
 bond charge predicted
       N       E                     dE             d eps       ncg     rms          rms(c)
DAV:   1    -0.127990097515E+03    0.19299E+00   -0.25215E+02  4500   0.246E+01    0.686E-01
DAV:   2    -0.128191573295E+03   -0.20148E+00   -0.21573E+00  4790   0.346E+00    0.591E-01
DAV:   3    -0.128189604974E+03    0.19683E-02   -0.77018E-02  4780   0.156E+00    0.381E-01
DAV:   4    -0.128188506250E+03    0.10987E-02   -0.77587E-03  4880   0.119E+00    0.337E-01
DAV:   5    -0.128187030102E+03    0.14761E-02   -0.24556E-03  5320   0.919E-01    0.282E-01
DAV:   6    -0.128184623487E+03    0.24066E-02   -0.68336E-03  6410   0.744E-01    0.129E-01
DAV:   7    -0.128184225841E+03    0.39765E-03   -0.31245E-03  6020   0.630E-01    0.469E-02
DAV:   8    -0.128184282132E+03   -0.56292E-04   -0.94749E-04  4680   0.177E-01    0.356E-02
DAV:   9    -0.128184260999E+03    0.21134E-04   -0.16258E-04  4650   0.131E-01    0.219E-02
DAV:  10    -0.128184258504E+03    0.24944E-05   -0.48912E-05  4790   0.592E-02
  49 F= -.12818426E+03 E0= -.12814397E+03  d E =-.116896E-02
quench:  g(F)=  0.000E+00 g(S)=  0.000E+00 dE (1.order)= 0.000E+00
 bond charge predicted
       N       E                     dE             d eps       ncg     rms          rms(c)
DAV:   1    -0.128140812502E+03    0.43448E-01   -0.64439E+01  4500   0.123E+01    0.283E-01
DAV:   2    -0.128185155252E+03   -0.44343E-01   -0.46154E-01  4770   0.152E+00    0.275E-01
DAV:   3    -0.128184415236E+03    0.74002E-03   -0.11645E-02  4800   0.716E-01    0.197E-01
DAV:   4    -0.128184092956E+03    0.32228E-03   -0.15265E-03  5030   0.614E-01    0.176E-01
DAV:   5    -0.128183589466E+03    0.50349E-03   -0.10764E-03  5970   0.664E-01    0.137E-01
DAV:   6    -0.128182934703E+03    0.65476E-03   -0.21318E-03  7030   0.551E-01    0.509E-02
DAV:   7    -0.128182905289E+03    0.29415E-04   -0.87663E-04  6160   0.265E-01    0.234E-02
DAV:   8    -0.128182909072E+03   -0.37833E-05   -0.20515E-04  4650   0.816E-02    0.179E-02
DAV:   9    -0.128182902249E+03    0.68234E-05   -0.45510E-05  4770   0.639E-02
  50 F= -.12818290E+03 E0= -.12814270E+03  d E =0.135626E-02
quench:  g(F)=  0.000E+00 g(S)=  0.000E+00 dE (1.order)= 0.000E+00
 bond charge predicted
       N       E                     dE             d eps       ncg     rms          rms(c)
DAV:   1    -0.128183381308E+03   -0.47224E-03   -0.20112E-01  4600   0.922E-01    0.284E-02
DAV:   2    -0.128183482893E+03   -0.10159E-03   -0.11992E-03  4570   0.152E-01    0.231E-02
DAV:   3    -0.128183486391E+03   -0.34972E-05   -0.13023E-04  4810   0.136E-01    0.171E-02
DAV:   4    -0.128183485146E+03    0.12442E-05   -0.37732E-05  3090   0.129E-01
  51 F= -.12818349E+03 E0= -.12814341E+03  d E =-.582898E-03
quench:  g(F)=  0.000E+00 g(S)=  0.000E+00 dE (1.order)= 0.000E+00
 bond charge predicted
       N       E                     dE             d eps       ncg     rms          rms(c)
DAV:   1    -0.128180605082E+03    0.28813E-02   -0.62622E+00  4500   0.381E+00    0.814E-02
DAV:   2    -0.128184600212E+03   -0.39951E-02   -0.40815E-02  4760   0.486E-01    0.781E-02
DAV:   3    -0.128184568418E+03    0.31794E-04   -0.10332E-03  5060   0.360E-01    0.643E-02
DAV:   4    -0.128184532092E+03    0.36326E-04   -0.21607E-04  4900   0.309E-01    0.559E-02
DAV:   5    -0.128184450259E+03    0.81832E-04   -0.16035E-04  5090   0.178E-01    0.354E-02
DAV:   6    -0.128184415998E+03    0.34261E-04   -0.22701E-04  6290   0.143E-01    0.146E-02
DAV:   7    -0.128184418197E+03   -0.21985E-05   -0.50239E-05  4740   0.566E-02
  52 F= -.12818442E+03 E0= -.12814454E+03  d E =-.933050E-03
quench:  g(F)=  0.000E+00 g(S)=  0.000E+00 dE (1.order)= 0.000E+00
 bond charge predicted
       N       E                     dE             d eps       ncg     rms          rms(c)
DAV:   1    -0.128164832759E+03    0.19583E-01   -0.34338E+01  4500   0.840E+00    0.192E-01
DAV:   2    -0.128187947749E+03   -0.23115E-01   -0.23894E-01  4770   0.101E+00    0.182E-01
DAV:   3    -0.128187635401E+03    0.31235E-03   -0.54485E-03  4740   0.336E-01    0.132E-01
DAV:   4    -0.128187466886E+03    0.16851E-03   -0.44442E-04  5090   0.243E-01    0.117E-01
DAV:   5    -0.128187314194E+03    0.15269E-03   -0.27173E-04  5470   0.344E-01    0.990E-02
DAV:   6    -0.128186985179E+03    0.32901E-03   -0.88249E-04  7190   0.337E-01    0.401E-02
DAV:   7    -0.128186947757E+03    0.37422E-04   -0.39703E-04  6210   0.197E-01    0.174E-02
DAV:   8    -0.128186953686E+03   -0.59290E-05   -0.10142E-04  4720   0.558E-02    0.136E-02
DAV:   9    -0.128186951391E+03    0.22944E-05   -0.15994E-05  3150   0.368E-02
  53 F= -.12818695E+03 E0= -.12814703E+03  d E =-.253319E-02
quench:  g(F)=  0.000E+00 g(S)=  0.000E+00 dE (1.order)= 0.000E+00
 bond charge predicted
       N       E                     dE             d eps       ncg     rms          rms(c)
DAV:   1    -0.127923685950E+03    0.26327E+00   -0.29915E+02  4500   0.288E+01    0.856E-01
DAV:   2    -0.128167203021E+03   -0.24352E+00   -0.26533E+00  4770   0.456E+00    0.712E-01
DAV:   3    -0.128165888647E+03    0.13144E-02   -0.11904E-01  4820   0.306E+00    0.452E-01
DAV:   4    -0.128164410180E+03    0.14785E-02   -0.20083E-02  4920   0.247E+00    0.392E-01
DAV:   5    -0.128161405408E+03    0.30048E-02   -0.83135E-03  5150   0.173E+00    0.294E-01
DAV:   6    -0.128158982600E+03    0.24228E-02   -0.11323E-02  6170   0.114E+00    0.105E-01
DAV:   7    -0.128159016352E+03   -0.33751E-04   -0.36302E-03  5060   0.539E-01    0.476E-02
DAV:   8    -0.128159018339E+03   -0.19872E-05   -0.73619E-04  4750   0.203E-01    0.393E-02
DAV:   9    -0.128158999536E+03    0.18802E-04   -0.33849E-04  4830   0.181E-01    0.221E-02
DAV:  10    -0.128158993467E+03    0.60696E-05   -0.49515E-05  4180   0.736E-02
  54 F= -.12815899E+03 E0= -.12811851E+03  d E =0.279579E-01
quench:  g(F)=  0.000E+00 g(S)=  0.000E+00 dE (1.order)= 0.000E+00
 bond charge predicted
       N       E                     dE             d eps       ncg     rms          rms(c)
DAV:   1    -0.128049439093E+03    0.10956E+00   -0.19024E+02  4500   0.233E+01    0.604E-01
DAV:   2    -0.128196767167E+03   -0.14733E+00   -0.15551E+00  5130   0.410E+00    0.660E-01
DAV:   3    -0.128193076550E+03    0.36906E-02   -0.65492E-02  4840   0.270E+00    0.391E-01
DAV:   4    -0.128191784299E+03    0.12923E-02   -0.99005E-03  4870   0.144E+00    0.343E-01
DAV:   5    -0.128191266106E+03    0.51819E-03   -0.84551E-03  5120   0.197E+00    0.297E-01
DAV:   6    -0.128187875494E+03    0.33906E-02   -0.10411E-02  6940   0.140E+00    0.675E-02
DAV:   7    -0.128188122250E+03   -0.24676E-03   -0.39564E-03  4750   0.406E-01    0.519E-02
DAV:   8    -0.128188098219E+03    0.24031E-04   -0.85730E-04  4760   0.287E-01    0.352E-02
DAV:   9    -0.128188077053E+03    0.21166E-04   -0.12655E-04  4880   0.111E-01    0.236E-02
DAV:  10    -0.128188064664E+03    0.12389E-04   -0.16941E-04  4930   0.107E-01    0.120E-02
DAV:  11    -0.128188065809E+03   -0.11452E-05   -0.39319E-05  3980   0.489E-02
  55 F= -.12818807E+03 E0= -.12814846E+03  d E =-.290723E-01
quench:  g(F)=  0.000E+00 g(S)=  0.000E+00 dE (1.order)= 0.000E+00
 bond charge predicted
       N       E                     dE             d eps       ncg     rms          rms(c)
DAV:   1    -0.128188400250E+03   -0.33559E-03   -0.16701E+00  4500   0.195E+00    0.407E-02
DAV:   2    -0.128189446924E+03   -0.10467E-02   -0.10732E-02  4650   0.228E-01    0.377E-02
DAV:   3    -0.128189434057E+03    0.12867E-04   -0.21278E-04  4570   0.792E-02    0.294E-02
DAV:   4    -0.128189422633E+03    0.11424E-04   -0.18432E-05  3210   0.618E-02    0.255E-02
DAV:   5    -0.128189400212E+03    0.22420E-04   -0.53935E-05  4000   0.383E-02    0.671E-03
DAV:   6    -0.128189401096E+03   -0.88423E-06   -0.11325E-05  3060   0.526E-02
  56 F= -.12818940E+03 E0= -.12814974E+03  d E =-.133529E-02
quench:  g(F)=  0.000E+00 g(S)=  0.000E+00 dE (1.order)= 0.000E+00
 bond charge predicted
       N       E                     dE             d eps       ncg     rms          rms(c)
DAV:   1    -0.128174267738E+03    0.15132E-01   -0.29913E+01  4500   0.821E+00    0.195E-01
DAV:   2    -0.128194189557E+03   -0.19922E-01   -0.20787E-01  4720   0.102E+00    0.175E-01
DAV:   3    -0.128193940490E+03    0.24907E-03   -0.54355E-03  4580   0.373E-01    0.125E-01
DAV:   4    -0.128193741405E+03    0.19909E-03   -0.45449E-04  4760   0.214E-01    0.106E-01
DAV:   5    -0.128193469200E+03    0.27220E-03   -0.43917E-04  5990   0.292E-01    0.653E-02
DAV:   6    -0.128193456302E+03    0.12898E-04   -0.79461E-04  6970   0.549E-01    0.469E-02
DAV:   7    -0.128193330785E+03    0.12552E-03   -0.41922E-04  6590   0.406E-01    0.152E-02
DAV:   8    -0.128193338497E+03   -0.77117E-05   -0.13302E-04  4910   0.629E-02    0.130E-02
DAV:   9    -0.128193334653E+03    0.38444E-05   -0.22054E-05  3230   0.300E-02
  57 F= -.12819333E+03 E0= -.12815341E+03  d E =-.393356E-02
quench:  g(F)=  0.000E+00 g(S)=  0.000E+00 dE (1.order)= 0.000E+00
 bond charge predicted
       N       E                     dE             d eps       ncg     rms          rms(c)
DAV:   1    -0.128186647785E+03    0.66907E-02   -0.14090E+01  4500   0.537E+00    0.116E-01
DAV:   2    -0.128195832914E+03   -0.91851E-02   -0.94247E-02  4750   0.623E-01    0.110E-01
DAV:   3    -0.128195712625E+03    0.12029E-03   -0.18920E-03  4780   0.196E-01    0.838E-02
DAV:   4    -0.128195641976E+03    0.70649E-04   -0.16341E-04  5040   0.185E-01    0.743E-02
DAV:   5    -0.128195561718E+03    0.80258E-04   -0.14798E-04  4770   0.253E-01    0.596E-02
DAV:   6    -0.128195432407E+03    0.12931E-03   -0.45268E-04  6210   0.217E-01    0.180E-02
DAV:   7    -0.128195433354E+03   -0.94731E-06   -0.12052E-04  5880   0.106E-01    0.120E-02
DAV:   8    -0.128195432791E+03    0.56311E-06   -0.27919E-05  3620   0.305E-02
  58 F= -.12819543E+03 E0= -.12815552E+03  d E =-.209814E-02
quench:  g(F)=  0.000E+00 g(S)=  0.000E+00 dE (1.order)= 0.000E+00
 bond charge predicted
       N       E                     dE             d eps       ncg     rms          rms(c)
DAV:   1    -0.128171103815E+03    0.24330E-01   -0.30926E+01  4500   0.112E+01    0.322E-01
DAV:   2    -0.128186135848E+03   -0.15032E-01   -0.17130E-01  4850   0.220E+00    0.342E-01
DAV:   3    -0.128185390223E+03    0.74562E-03   -0.18593E-02  4800   0.166E+00    0.176E-01
DAV:   4    -0.128185434874E+03   -0.44651E-04   -0.35404E-03  5140   0.118E+00    0.147E-01
DAV:   5    -0.128184921149E+03    0.51373E-03   -0.40282E-03  5150   0.146E+00    0.983E-02
DAV:   6    -0.128184546038E+03    0.37511E-03   -0.17602E-03  6930   0.619E-01    0.241E-02
DAV:   7    -0.128184586896E+03   -0.40859E-04   -0.62556E-04  4810   0.153E-01    0.215E-02
DAV:   8    -0.128184583384E+03    0.35119E-05   -0.13770E-04  4760   0.860E-02    0.119E-02
DAV:   9    -0.128184577534E+03    0.58506E-05   -0.20991E-05  3290   0.362E-02
  59 F= -.12818458E+03 E0= -.12814540E+03  d E =0.108553E-01
quench:  g(F)=  0.000E+00 g(S)=  0.000E+00 dE (1.order)= 0.000E+00
 bond charge predicted
       N       E                     dE             d eps       ncg     rms          rms(c)
DAV:   1    -0.128179398780E+03    0.51846E-02   -0.23540E+01  4500   0.800E+00    0.181E-01
DAV:   2    -0.128194065607E+03   -0.14667E-01   -0.15317E-01  4640   0.982E-01    0.166E-01
DAV:   3    -0.128193824467E+03    0.24114E-03   -0.39711E-03  4810   0.524E-01    0.122E-01
DAV:   4    -0.128193692535E+03    0.13193E-03   -0.72453E-04  4890   0.512E-01    0.108E-01
DAV:   5    -0.128193599114E+03    0.93421E-04   -0.10382E-03  6250   0.708E-01    0.855E-02
DAV:   6    -0.128193265056E+03    0.33406E-03   -0.10672E-03  7490   0.530E-01    0.210E-02
DAV:   7    -0.128193286076E+03   -0.21019E-04   -0.30232E-04  5100   0.113E-01    0.157E-02
DAV:   8    -0.128193282080E+03    0.39951E-05   -0.43200E-05  4660   0.487E-02
  60 F= -.12819328E+03 E0= -.12815410E+03  d E =-.870455E-02
quench:  g(F)=  0.000E+00 g(S)=  0.000E+00 dE (1.order)= 0.000E+00
 bond charge predicted
       N       E                     dE             d eps       ncg     rms          rms(c)
DAV:   1    -0.128192638781E+03    0.64729E-03   -0.10419E+01  4500   0.552E+00    0.126E-01
DAV:   2    -0.128198562867E+03   -0.59241E-02   -0.62780E-02  4720   0.612E-01    0.105E-01
DAV:   3    -0.128198420425E+03    0.14244E-03   -0.13543E-03  4830   0.235E-01    0.789E-02
DAV:   4    -0.128198317554E+03    0.10287E-03   -0.25822E-04  5270   0.276E-01    0.655E-02
DAV:   5    -0.128198249526E+03    0.68028E-04   -0.47239E-04  7380   0.378E-01    0.365E-02
DAV:   6    -0.128198198325E+03    0.51201E-04   -0.35697E-04  6080   0.417E-01    0.185E-02
DAV:   7    -0.128198182959E+03    0.15366E-04   -0.92024E-05  5120   0.149E-01    0.858E-03
DAV:   8    -0.128198185325E+03   -0.23659E-05   -0.45786E-05  4580   0.294E-02
  61 F= -.12819819E+03 E0= -.12815884E+03  d E =-.490324E-02
quench:  g(F)=  0.000E+00 g(S)=  0.000E+00 dE (1.order)= 0.000E+00
 bond charge predicted
       N       E                     dE             d eps       ncg     rms          rms(c)
DAV:   1    -0.128198601313E+03   -0.41835E-03   -0.46708E+00  4500   0.378E+00    0.918E-02
DAV:   2    -0.128201322485E+03   -0.27212E-02   -0.28921E-02  4670   0.478E-01    0.757E-02
DAV:   3    -0.128201285148E+03    0.37336E-04   -0.91963E-04  4880   0.243E-01    0.552E-02
DAV:   4    -0.128201241383E+03    0.43765E-04   -0.14750E-04  5130   0.212E-01    0.457E-02
DAV:   5    -0.128201230759E+03    0.10624E-04   -0.23521E-04  6250   0.274E-01    0.292E-02
DAV:   6    -0.128201187665E+03    0.43094E-04   -0.18196E-04  5350   0.301E-01    0.131E-02
DAV:   7    -0.128201182876E+03    0.47888E-05   -0.38364E-05  3610   0.868E-02
  62 F= -.12820118E+03 E0= -.12816154E+03  d E =-.299755E-02
quench:  g(F)=  0.000E+00 g(S)=  0.000E+00 dE (1.order)= 0.000E+00
 bond charge predicted
       N       E                     dE             d eps       ncg     rms          rms(c)
DAV:   1    -0.128199857484E+03    0.13302E-02   -0.11220E+00  4500   0.181E+00    0.392E-02
DAV:   2    -0.128200471589E+03   -0.61410E-03   -0.64478E-03  4640   0.203E-01    0.362E-02
DAV:   3    -0.128200456638E+03    0.14951E-04   -0.16936E-04  4830   0.102E-01    0.281E-02
DAV:   4    -0.128200447916E+03    0.87222E-05   -0.35001E-05  3670   0.121E-01
  63 F= -.12820045E+03 E0= -.12816074E+03  d E =0.734960E-03
quench:  g(F)=  0.000E+00 g(S)=  0.000E+00 dE (1.order)= 0.000E+00
 bond charge predicted
       N       E                     dE             d eps       ncg     rms          rms(c)
DAV:   1    -0.128194903087E+03    0.55536E-02   -0.59468E+00  4500   0.375E+00    0.792E-02
DAV:   2    -0.128198595622E+03   -0.36925E-02   -0.36720E-02  6060   0.742E-01    0.942E-02
DAV:   3    -0.128198517493E+03    0.78129E-04   -0.23529E-03  4860   0.774E-01    0.754E-02
DAV:   4    -0.128198420633E+03    0.96860E-04   -0.41692E-04  4790   0.324E-01    0.575E-02
DAV:   5    -0.128198323431E+03    0.97202E-04   -0.49979E-04  5020   0.125E-01    0.301E-02
DAV:   6    -0.128198313261E+03    0.10170E-04   -0.19131E-04  4990   0.164E-01    0.104E-02
DAV:   7    -0.128198313698E+03   -0.43693E-06   -0.20282E-05  3010   0.430E-02
  64 F= -.12819831E+03 E0= -.12815857E+03  d E =0.213422E-02
quench:  g(F)=  0.000E+00 g(S)=  0.000E+00 dE (1.order)= 0.000E+00
 bond charge predicted
       N       E                     dE             d eps       ncg     rms          rms(c)
DAV:   1    -0.128193362523E+03    0.49507E-02   -0.54786E+00  4500   0.378E+00    0.822E-02
DAV:   2    -0.128196575676E+03   -0.32132E-02   -0.33462E-02  4650   0.411E-01    0.708E-02
DAV:   3    -0.128196511383E+03    0.64293E-04   -0.67898E-04  4830   0.168E-01    0.549E-02
DAV:   4    -0.128196473106E+03    0.38277E-04   -0.10937E-04  5140   0.191E-01    0.469E-02
DAV:   5    -0.128196453294E+03    0.19812E-04   -0.24146E-04  5790   0.326E-01    0.360E-02
DAV:   6    -0.128196386456E+03    0.66838E-04   -0.21765E-04  6520   0.272E-01    0.818E-03
DAV:   7    -0.128196391559E+03   -0.51031E-05   -0.71129E-05  4890   0.545E-02
  65 F= -.12819639E+03 E0= -.12815662E+03  d E =0.192214E-02
quench:  g(F)=  0.000E+00 g(S)=  0.000E+00 dE (1.order)= 0.000E+00
 bond charge predicted
       N       E                     dE             d eps       ncg     rms          rms(c)
DAV:   1    -0.128189335678E+03    0.70508E-02   -0.10534E+01  4500   0.577E+00    0.133E-01
DAV:   2    -0.128194754197E+03   -0.54185E-02   -0.58459E-02  4740   0.618E-01    0.111E-01
DAV:   3    -0.128194599950E+03    0.15425E-03   -0.16555E-03  4880   0.353E-01    0.841E-02
DAV:   4    -0.128194527155E+03    0.72795E-04   -0.42909E-04  5170   0.418E-01    0.708E-02
DAV:   5    -0.128194505158E+03    0.21997E-04   -0.75676E-04  6120   0.610E-01    0.590E-02
DAV:   6    -0.128194324147E+03    0.18101E-03   -0.60178E-04  7770   0.429E-01    0.123E-02
DAV:   7    -0.128194335121E+03   -0.10974E-04   -0.14843E-04  5110   0.679E-02    0.947E-03
DAV:   8    -0.128194333827E+03    0.12941E-05   -0.15964E-05  2920   0.273E-02
  66 F= -.12819433E+03 E0= -.12815462E+03  d E =0.205773E-02
quench:  g(F)=  0.000E+00 g(S)=  0.000E+00 dE (1.order)= 0.000E+00
 bond charge predicted
       N       E                     dE             d eps       ncg     rms          rms(c)
DAV:   1    -0.127929606202E+03    0.26473E+00   -0.34644E+02  4500   0.287E+01    0.814E-01
DAV:   2    -0.128212753492E+03   -0.28315E+00   -0.30419E+00  4720   0.416E+00    0.694E-01
DAV:   3    -0.128210783612E+03    0.19699E-02   -0.11436E-01  4680   0.152E+00    0.435E-01
DAV:   4    -0.128208964641E+03    0.18190E-02   -0.87257E-03  5470   0.905E-01    0.375E-01
DAV:   5    -0.128207711926E+03    0.12527E-02   -0.24171E-03  5150   0.994E-01    0.332E-01
DAV:   6    -0.128204718224E+03    0.29937E-02   -0.62283E-03  7100   0.963E-01    0.182E-01
DAV:   7    -0.128203630854E+03    0.10874E-02   -0.56042E-03  6510   0.815E-01    0.609E-02
DAV:   8    -0.128203719667E+03   -0.88812E-04   -0.17649E-03  4890   0.264E-01    0.402E-02
DAV:   9    -0.128203702123E+03    0.17544E-04   -0.22125E-04  4680   0.112E-01    0.269E-02
DAV:  10    -0.128203698503E+03    0.36193E-05   -0.92886E-05  5070   0.815E-02
  67 F= -.12820370E+03 E0= -.12816342E+03  d E =-.936468E-02
quench:  g(F)=  0.000E+00 g(S)=  0.000E+00 dE (1.order)= 0.000E+00
 bond charge predicted
       N       E                     dE             d eps       ncg     rms          rms(c)
DAV:   1    -0.128153975153E+03    0.49727E-01   -0.75221E+01  4500   0.156E+01    0.402E-01
DAV:   2    -0.128200986334E+03   -0.47011E-01   -0.50551E-01  5380   0.276E+00    0.427E-01
DAV:   3    -0.128199850154E+03    0.11362E-02   -0.28623E-02  4810   0.223E+00    0.261E-01
DAV:   4    -0.128199244122E+03    0.60603E-03   -0.63353E-03  4980   0.155E+00    0.222E-01
DAV:   5    -0.128198399094E+03    0.84503E-03   -0.43269E-03  5320   0.137E+00    0.171E-01
DAV:   6    -0.128197540960E+03    0.85813E-03   -0.51696E-03  6300   0.700E-01    0.345E-02
DAV:   7    -0.128197616227E+03   -0.75267E-04   -0.11489E-03  4690   0.229E-01    0.355E-02
DAV:   8    -0.128197609616E+03    0.66112E-05   -0.32415E-04  4750   0.173E-01    0.185E-02
DAV:   9    -0.128197599870E+03    0.97463E-05   -0.51551E-05  4330   0.408E-02
  68 F= -.12819760E+03 E0= -.12815876E+03  d E =0.609863E-02
quench:  g(F)=  0.000E+00 g(S)=  0.000E+00 dE (1.order)= 0.000E+00
 bond charge predicted
       N       E                     dE             d eps       ncg     rms          rms(c)
DAV:   1    -0.128193260720E+03    0.43489E-02   -0.22872E+01  4500   0.835E+00    0.215E-01
DAV:   2    -0.128206604492E+03   -0.13344E-01   -0.14587E-01  4650   0.103E+00    0.170E-01
DAV:   3    -0.128206460580E+03    0.14391E-03   -0.56701E-03  4770   0.585E-01    0.125E-01
DAV:   4    -0.128206319452E+03    0.14113E-03   -0.90961E-04  4790   0.604E-01    0.103E-01
DAV:   5    -0.128206241885E+03    0.77566E-04   -0.12919E-03  6190   0.792E-01    0.783E-02
DAV:   6    -0.128205930355E+03    0.31153E-03   -0.10908E-03  7860   0.619E-01    0.227E-02
DAV:   7    -0.128205938712E+03   -0.83570E-05   -0.29972E-04  5840   0.145E-01    0.146E-02
DAV:   8    -0.128205936112E+03    0.26006E-05   -0.55931E-05  4750   0.381E-02
  69 F= -.12820594E+03 E0= -.12816640E+03  d E =-.833624E-02
quench:  g(F)=  0.000E+00 g(S)=  0.000E+00 dE (1.order)= 0.000E+00
 bond charge predicted
       N       E                     dE             d eps       ncg     rms          rms(c)
DAV:   1    -0.128206444257E+03   -0.50554E-03   -0.17903E-01  4590   0.855E-01    0.250E-02
DAV:   2    -0.128206518869E+03   -0.74612E-04   -0.88963E-04  4740   0.118E-01    0.196E-02
DAV:   3    -0.128206518787E+03    0.81389E-07   -0.80949E-05  4840   0.100E-01
  70 F= -.12820652E+03 E0= -.12816692E+03  d E =-.582676E-03
quench:  g(F)=  0.000E+00 g(S)=  0.000E+00 dE (1.order)= 0.000E+00
 bond charge predicted
       N       E                     dE             d eps       ncg     rms          rms(c)
DAV:   1    -0.128206848417E+03   -0.32955E-03   -0.11258E+00  4500   0.227E+00    0.683E-02
DAV:   2    -0.128207050697E+03   -0.20228E-03   -0.32009E-03  4700   0.272E-01    0.535E-02
DAV:   3    -0.128207057504E+03   -0.68070E-05   -0.60992E-04  4890   0.357E-01    0.503E-02
DAV:   4    -0.128207037444E+03    0.20060E-04   -0.34231E-04  4930   0.417E-01    0.380E-02
DAV:   5    -0.128206986090E+03    0.51354E-04   -0.19128E-04  5990   0.300E-01    0.109E-02
DAV:   6    -0.128206981334E+03    0.47566E-05   -0.38195E-05  3230   0.723E-02
  71 F= -.12820698E+03 E0= -.12816731E+03  d E =-.462547E-03
quench:  g(F)=  0.000E+00 g(S)=  0.000E+00 dE (1.order)= 0.000E+00
 bond charge predicted
       N       E                     dE             d eps       ncg     rms          rms(c)
DAV:   1    -0.128206269019E+03    0.71707E-03   -0.26179E+00  4500   0.347E+00    0.936E-02
DAV:   2    -0.128206691984E+03   -0.42296E-03   -0.66661E-03  4590   0.393E-01    0.781E-02
DAV:   3    -0.128206657075E+03    0.34909E-04   -0.10144E-03  4940   0.446E-01    0.622E-02
DAV:   4    -0.128206653750E+03    0.33245E-05   -0.56867E-04  5660   0.525E-01    0.426E-02
DAV:   5    -0.128206535509E+03    0.11824E-03   -0.42463E-04  7390   0.438E-01    0.156E-02
DAV:   6    -0.128206531664E+03    0.38444E-05   -0.91912E-05  5340   0.107E-01
  72 F= -.12820653E+03 E0= -.12816682E+03  d E =0.449670E-03
quench:  g(F)=  0.000E+00 g(S)=  0.000E+00 dE (1.order)= 0.000E+00
 bond charge predicted
       N       E                     dE             d eps       ncg     rms          rms(c)
DAV:   1    -0.128111655655E+03    0.94880E-01   -0.76326E+01  4500   0.180E+01    0.617E-01
DAV:   2    -0.128156394953E+03   -0.44739E-01   -0.53243E-01  5150   0.468E+00    0.690E-01
DAV:   3    -0.128151725178E+03    0.46698E-02   -0.66563E-02  4790   0.337E+00    0.287E-01
DAV:   4    -0.128152705342E+03   -0.98016E-03   -0.11789E-02  4990   0.200E+00    0.251E-01
DAV:   5    -0.128150804236E+03    0.19011E-02   -0.12764E-02  4960   0.249E+00    0.162E-01
DAV:   6    -0.128150000158E+03    0.80408E-03   -0.42399E-03  5580   0.861E-01    0.348E-02
DAV:   7    -0.128150127433E+03   -0.12728E-03   -0.18791E-03  4810   0.242E-01    0.286E-02
DAV:   8    -0.128150147545E+03   -0.20112E-04   -0.45512E-04  4790   0.143E-01    0.198E-02
DAV:   9    -0.128150136414E+03    0.11131E-04   -0.77189E-05  4560   0.528E-02    0.807E-03
DAV:  10    -0.128150136922E+03   -0.50796E-06   -0.78589E-06  2680   0.428E-02
  73 F= -.12815014E+03 E0= -.12811204E+03  d E =0.563947E-01
quench:  g(F)=  0.000E+00 g(S)=  0.000E+00 dE (1.order)= 0.000E+00
 bond charge predicted
       N       E                     dE             d eps       ncg     rms          rms(c)
DAV:   1    -0.128155094506E+03   -0.49581E-02   -0.96641E+01  4500   0.183E+01    0.559E-01
DAV:   2    -0.128215232946E+03   -0.60138E-01   -0.69294E-01  4730   0.285E+00    0.459E-01
DAV:   3    -0.128214532664E+03    0.70028E-03   -0.41481E-02  4810   0.226E+00    0.290E-01
DAV:   4    -0.128214200222E+03    0.33244E-03   -0.10324E-02  4890   0.205E+00    0.251E-01
DAV:   5    -0.128213184675E+03    0.10155E-02   -0.77554E-03  5150   0.199E+00    0.193E-01
DAV:   6    -0.128211835061E+03    0.13496E-02   -0.55224E-03  6990   0.106E+00    0.334E-02
DAV:   7    -0.128211974185E+03   -0.13912E-03   -0.17951E-03  4690   0.215E-01    0.355E-02
DAV:   8    -0.128211952855E+03    0.21329E-04   -0.18802E-04  4900   0.128E-01    0.231E-02
DAV:   9    -0.128211937720E+03    0.15136E-04   -0.71502E-05  4900   0.791E-02    0.867E-03
DAV:  10    -0.128211939389E+03   -0.16691E-05   -0.23089E-05  3330   0.395E-02
  74 F= -.12821194E+03 E0= -.12817266E+03  d E =-.618025E-01
quench:  g(F)=  0.000E+00 g(S)=  0.000E+00 dE (1.order)= 0.000E+00
 bond charge predicted
       N       E                     dE             d eps       ncg     rms          rms(c)
DAV:   1    -0.128205721087E+03    0.62166E-02   -0.21291E+01  4500   0.891E+00    0.234E-01
DAV:   2    -0.128215336230E+03   -0.96151E-02   -0.11064E-01  4690   0.106E+00    0.184E-01
DAV:   3    -0.128215057849E+03    0.27838E-03   -0.51120E-03  4780   0.885E-01    0.138E-01
DAV:   4    -0.128214982812E+03    0.75036E-04   -0.23111E-03  5040   0.110E+00    0.118E-01
DAV:   5    -0.128214551646E+03    0.43117E-03   -0.21429E-03  7560   0.975E-01    0.700E-02
DAV:   6    -0.128214343413E+03    0.20823E-03   -0.11013E-03  7160   0.472E-01    0.178E-02
DAV:   7    -0.128214362093E+03   -0.18680E-04   -0.30702E-04  4800   0.911E-02    0.156E-02
DAV:   8    -0.128214358774E+03    0.33187E-05   -0.43989E-05  4590   0.611E-02
  75 F= -.12821436E+03 E0= -.12817479E+03  d E =-.241939E-02
quench:  g(F)=  0.000E+00 g(S)=  0.000E+00 dE (1.order)= 0.000E+00
 bond charge predicted
       N       E                     dE             d eps       ncg     rms          rms(c)
DAV:   1    -0.128213874915E+03    0.48718E-03   -0.64484E+00  4500   0.473E+00    0.116E-01
DAV:   2    -0.128216944071E+03   -0.30692E-02   -0.33775E-02  4920   0.597E-01    0.104E-01
DAV:   3    -0.128216855677E+03    0.88394E-04   -0.17157E-03  4880   0.474E-01    0.756E-02
DAV:   4    -0.128216787532E+03    0.68146E-04   -0.44641E-04  5000   0.437E-01    0.605E-02
DAV:   5    -0.128216763876E+03    0.23655E-04   -0.58372E-04  6280   0.540E-01    0.494E-02
DAV:   6    -0.128216637472E+03    0.12640E-03   -0.45440E-04  7630   0.323E-01    0.119E-02
DAV:   7    -0.128216643412E+03   -0.59402E-05   -0.10638E-04  4770   0.559E-02    0.877E-03
DAV:   8    -0.128216643129E+03    0.28303E-06   -0.17243E-05  2820   0.311E-02
  76 F= -.12821664E+03 E0= -.12817707E+03  d E =-.228436E-02
quench:  g(F)=  0.000E+00 g(S)=  0.000E+00 dE (1.order)= 0.000E+00
 bond charge predicted
       N       E                     dE             d eps       ncg     rms          rms(c)
DAV:   1    -0.128215565605E+03    0.10778E-02   -0.53675E+00  4500   0.465E+00    0.118E-01
DAV:   2    -0.128217431497E+03   -0.18659E-02   -0.22724E-02  4770   0.497E-01    0.954E-02
DAV:   3    -0.128217315215E+03    0.11628E-03   -0.11820E-03  4980   0.389E-01    0.705E-02
DAV:   4    -0.128217243532E+03    0.71683E-04   -0.43180E-04  5050   0.452E-01    0.509E-02
DAV:   5    -0.128217278328E+03   -0.34796E-04   -0.74466E-04  7130   0.612E-01    0.471E-02
DAV:   6    -0.128217132943E+03    0.14538E-03   -0.36915E-04  7800   0.371E-01    0.886E-03
DAV:   7    -0.128217137895E+03   -0.49517E-05   -0.85595E-05  4800   0.393E-02
  77 F= -.12821714E+03 E0= -.12817764E+03  d E =-.494766E-03
quench:  g(F)=  0.000E+00 g(S)=  0.000E+00 dE (1.order)= 0.000E+00
 bond charge predicted
       N       E                     dE             d eps       ncg     rms          rms(c)
DAV:   1    -0.128135370605E+03    0.81762E-01   -0.17233E+02  4500   0.258E+01    0.674E-01
DAV:   2    -0.128217880503E+03   -0.82510E-01   -0.95166E-01  5400   0.365E+00    0.645E-01
DAV:   3    -0.128214319589E+03    0.35609E-02   -0.55907E-02  4910   0.347E+00    0.418E-01
DAV:   4    -0.128212181805E+03    0.21378E-02   -0.18293E-02  5590   0.293E+00    0.355E-01
DAV:   5    -0.128208291350E+03    0.38905E-02   -0.16408E-02  6650   0.253E+00    0.206E-01
DAV:   6    -0.128206958516E+03    0.13328E-02   -0.12464E-02  6690   0.127E+00    0.727E-02
DAV:   7    -0.128207039542E+03   -0.81027E-04   -0.29632E-03  4840   0.421E-01    0.512E-02
DAV:   8    -0.128207041273E+03   -0.17306E-05   -0.13242E-03  4670   0.269E-01    0.351E-02
DAV:   9    -0.128207028065E+03    0.13208E-04   -0.17031E-04  4780   0.137E-01    0.210E-02
DAV:  10    -0.128207023944E+03    0.41210E-05   -0.61188E-05  4630   0.106E-01
  78 F= -.12820702E+03 E0= -.12816760E+03  d E =0.101140E-01
quench:  g(F)=  0.000E+00 g(S)=  0.000E+00 dE (1.order)= 0.000E+00
 bond charge predicted
       N       E                     dE             d eps       ncg     rms          rms(c)
DAV:   1    -0.128204265378E+03    0.27627E-02   -0.39657E+00  4500   0.368E+00    0.886E-02
DAV:   2    -0.128206130353E+03   -0.18650E-02   -0.20473E-02  4800   0.426E-01    0.761E-02
DAV:   3    -0.128206075387E+03    0.54966E-04   -0.95383E-04  4700   0.293E-01    0.582E-02
DAV:   4    -0.128206017659E+03    0.57728E-04   -0.17139E-04  4900   0.242E-01    0.425E-02
DAV:   5    -0.128206074021E+03   -0.56363E-04   -0.39878E-04  6220   0.447E-01    0.446E-02
DAV:   6    -0.128205951391E+03    0.12263E-03   -0.31336E-04  7050   0.362E-01    0.101E-02
DAV:   7    -0.128205956364E+03   -0.49730E-05   -0.79734E-05  4790   0.531E-02
  79 F= -.12820596E+03 E0= -.12816645E+03  d E =0.106758E-02
quench:  g(F)=  0.000E+00 g(S)=  0.000E+00 dE (1.order)= 0.000E+00
 bond charge predicted
       N       E                     dE             d eps       ncg     rms          rms(c)
DAV:   1    -0.128206032781E+03   -0.81390E-04   -0.22643E+00  4500   0.320E+00    0.910E-02
DAV:   2    -0.128206513568E+03   -0.48079E-03   -0.71069E-03  4560   0.410E-01    0.736E-02
DAV:   3    -0.128206519336E+03   -0.57684E-05   -0.13229E-03  4610   0.396E-01    0.598E-02
DAV:   4    -0.128206429730E+03    0.89606E-04   -0.22186E-04  5140   0.237E-01    0.185E-02
DAV:   5    -0.128206473938E+03   -0.44208E-04   -0.22017E-04  5680   0.320E-01    0.268E-02
DAV:   6    -0.128206426051E+03    0.47887E-04   -0.11106E-04  3890   0.238E-01    0.524E-03
DAV:   7    -0.128206428442E+03   -0.23912E-05   -0.33338E-05  3770   0.360E-02
  80 F= -.12820643E+03 E0= -.12816681E+03  d E =-.472078E-03
quench:  g(F)=  0.000E+00 g(S)=  0.000E+00 dE (1.order)= 0.000E+00
 bond charge predicted
       N       E                     dE             d eps       ncg     rms          rms(c)
DAV:   1    -0.128204666488E+03    0.17596E-02   -0.90755E+00  4500   0.558E+00    0.135E-01
DAV:   2    -0.128208971193E+03   -0.43047E-02   -0.48037E-02  4770   0.590E-01    0.108E-01
DAV:   3    -0.128208816661E+03    0.15453E-03   -0.14550E-03  4830   0.298E-01    0.786E-02
DAV:   4    -0.128208736935E+03    0.79725E-04   -0.44497E-04  5070   0.423E-01    0.674E-02
DAV:   5    -0.128208748066E+03   -0.11131E-04   -0.81009E-04  6300   0.630E-01    0.562E-02
DAV:   6    -0.128208579819E+03    0.16825E-03   -0.52440E-04  7630   0.454E-01    0.117E-02
DAV:   7    -0.128208585383E+03   -0.55640E-05   -0.11887E-04  5300   0.730E-02    0.810E-03
DAV:   8    -0.128208584750E+03    0.63325E-06   -0.21549E-05  2930   0.308E-02
  81 F= -.12820858E+03 E0= -.12816897E+03  d E =-.215631E-02
quench:  g(F)=  0.000E+00 g(S)=  0.000E+00 dE (1.order)= 0.000E+00
 bond charge predicted
       N       E                     dE             d eps       ncg     rms          rms(c)
DAV:   1    -0.128175494735E+03    0.33091E-01   -0.10821E+02  4500   0.209E+01    0.546E-01
DAV:   2    -0.128218659595E+03   -0.43165E-01   -0.51627E-01  5090   0.269E+00    0.498E-01
DAV:   3    -0.128216364601E+03    0.22950E-02   -0.31917E-02  5040   0.252E+00    0.335E-01
DAV:   4    -0.128215578438E+03    0.78616E-03   -0.12823E-02  5470   0.254E+00    0.281E-01
DAV:   5    -0.128212807992E+03    0.27704E-02   -0.13045E-02  7060   0.238E+00    0.165E-01
DAV:   6    -0.128211788148E+03    0.10198E-02   -0.76234E-03  6950   0.107E+00    0.507E-02
DAV:   7    -0.128211857494E+03   -0.69346E-04   -0.18811E-03  4940   0.267E-01    0.413E-02
DAV:   8    -0.128211847995E+03    0.94996E-05   -0.64963E-04  4630   0.190E-01    0.262E-02
DAV:   9    -0.128211838865E+03    0.91293E-05   -0.99221E-05  4730   0.102E-01
  82 F= -.12821184E+03 E0= -.12817260E+03  d E =-.325412E-02
quench:  g(F)=  0.000E+00 g(S)=  0.000E+00 dE (1.order)= 0.000E+00
 bond charge predicted
       N       E                     dE             d eps       ncg     rms          rms(c)
DAV:   1    -0.128070832801E+03    0.14102E+00   -0.29960E+02  4500   0.379E+01    0.114E+00
DAV:   2    -0.128179375141E+03   -0.10854E+00   -0.14148E+00  4970   0.734E+00    0.117E+00
DAV:   3    -0.128170729309E+03    0.86458E-02   -0.20751E-01  4890   0.739E+00    0.630E-01
DAV:   4    -0.128171452813E+03   -0.72350E-03   -0.78667E-02  6250   0.588E+00    0.565E-01
DAV:   5    -0.128152017662E+03    0.19435E-01   -0.50248E-02  5590   0.451E+00    0.240E-01
DAV:   6    -0.128153883420E+03   -0.18658E-02   -0.31312E-02  5330   0.140E+00    0.207E-01
DAV:   7    -0.128153440913E+03    0.44251E-03   -0.76517E-03  4770   0.934E-01    0.641E-02
DAV:   8    -0.128153504247E+03   -0.63334E-04   -0.18440E-03  4720   0.254E-01    0.505E-02
DAV:   9    -0.128153468692E+03    0.35555E-04   -0.51865E-04  4610   0.211E-01    0.225E-02
DAV:  10    -0.128153464264E+03    0.44278E-05   -0.63241E-05  4350   0.116E-01
  83 F= -.12815346E+03 E0= -.12811256E+03  d E =0.583746E-01
quench:  g(F)=  0.000E+00 g(S)=  0.000E+00 dE (1.order)= 0.000E+00
 bond charge predicted
       N       E                     dE             d eps       ncg     rms          rms(c)
DAV:   1    -0.128178245708E+03   -0.24777E-01   -0.62074E+01  4500   0.170E+01    0.479E-01
DAV:   2    -0.128188095914E+03   -0.98502E-02   -0.16947E-01  4860   0.219E+00    0.426E-01
DAV:   3    -0.128186518475E+03    0.15774E-02   -0.22647E-02  4910   0.239E+00    0.288E-01
DAV:   4    -0.128187582882E+03   -0.10644E-02   -0.16351E-02  6630   0.285E+00    0.228E-01
DAV:   5    -0.128183120443E+03    0.44624E-02   -0.13013E-02  8350   0.227E+00    0.971E-02
[...]
DAV:   8    -0.128034899333E+03    0.19542E-04   -0.25343E-03  4620   0.492E-01    0.573E-02
DAV:   9    -0.128034868078E+03    0.31255E-04   -0.50431E-04  4580   0.186E-01    0.322E-02
DAV:  10    -0.128034870106E+03   -0.20287E-05   -0.22609E-04  4860   0.199E-01    0.166E-02
DAV:  11    -0.128034889092E+03   -0.18985E-04   -0.97312E-05  4670   0.804E-02    0.113E-02
DAV:  12    -0.128034893496E+03   -0.44041E-05   -0.23538E-05  3080   0.578E-02
 144 F= -.12803489E+03 E0= -.12799487E+03  d E =0.269066E-01
quench:  g(F)=  0.000E+00 g(S)=  0.000E+00 dE (1.order)= 0.000E+00
 bond charge predicted
       N       E                     dE             d eps       ncg     rms          rms(c)
DAV:   1    -0.128036000057E+03   -0.11110E-02   -0.18375E+02  4500   0.293E+01    0.859E-01
DAV:   2    -0.128089854279E+03   -0.53854E-01   -0.74128E-01  5320   0.517E+00    0.868E-01
DAV:   3    -0.128083527952E+03    0.63263E-02   -0.10093E-01  4910   0.489E+00    0.483E-01
DAV:   4    -0.128085882602E+03   -0.23547E-02   -0.42779E-02  5440   0.458E+00    0.459E-01
DAV:   5    -0.128073332852E+03    0.12550E-01   -0.32594E-02  5890   0.383E+00    0.182E-01
DAV:   6    -0.128074106173E+03   -0.77332E-03   -0.18805E-02  6000   0.106E+00    0.118E-01
DAV:   7    -0.128073951319E+03    0.15485E-03   -0.32128E-03  4630   0.502E-01    0.485E-02
DAV:   8    -0.128073977679E+03   -0.26360E-04   -0.11620E-03  4750   0.217E-01    0.385E-02
DAV:   9    -0.128073961866E+03    0.15813E-04   -0.22562E-04  4740   0.161E-01    0.224E-02
DAV:  10    -0.128073953880E+03    0.79858E-05   -0.46001E-05  4270   0.118E-01
 145 F= -.12807395E+03 E0= -.12803401E+03  d E =-.390604E-01
quench:  g(F)=  0.000E+00 g(S)=  0.000E+00 dE (1.order)= 0.000E+00
 bond charge predicted
       N       E                     dE             d eps       ncg     rms          rms(c)
DAV:   1    -0.128051742755E+03    0.22219E-01   -0.54775E+01  4500   0.157E+01    0.422E-01
DAV:   2    -0.128065301276E+03   -0.13559E-01   -0.18874E-01  4620   0.172E+00    0.349E-01
DAV:   3    -0.128064000987E+03    0.13003E-02   -0.15681E-02  4900   0.185E+00    0.255E-01
DAV:   4    -0.128063842980E+03    0.15801E-03   -0.91941E-03  5610   0.224E+00    0.190E-01
DAV:   5    -0.128062020278E+03    0.18227E-02   -0.89464E-03  7940   0.203E+00    0.106E-01
DAV:   6    -0.128061545459E+03    0.47482E-03   -0.29156E-03  7290   0.769E-01    0.297E-02
DAV:   7    -0.128061587675E+03   -0.42217E-04   -0.83305E-04  4650   0.129E-01    0.231E-02
DAV:   8    -0.128061581703E+03    0.59728E-05   -0.13631E-04  4710   0.771E-02    0.152E-02
DAV:   9    -0.128061577759E+03    0.39433E-05   -0.24742E-05  3140   0.605E-02
 146 F= -.12806158E+03 E0= -.12802165E+03  d E =0.123761E-01
quench:  g(F)=  0.000E+00 g(S)=  0.000E+00 dE (1.order)= 0.000E+00
 bond charge predicted
       N       E                     dE             d eps       ncg     rms          rms(c)
DAV:   1    -0.128059213636E+03    0.23681E-02   -0.22374E+00  4500   0.284E+00    0.681E-02
DAV:   2    -0.128060197182E+03   -0.98355E-03   -0.11039E-02  4650   0.281E-01    0.540E-02
DAV:   3    -0.128060149173E+03    0.48009E-04   -0.28898E-04  4860   0.130E-01    0.393E-02
DAV:   4    -0.128060118211E+03    0.30962E-04   -0.10050E-04  5280   0.185E-01    0.326E-02
DAV:   5    -0.128060107963E+03    0.10248E-04   -0.13740E-04  5970   0.214E-01    0.175E-02
DAV:   6    -0.128060089613E+03    0.18350E-04   -0.64877E-05  3290   0.178E-01    0.850E-03
DAV:   7    -0.128060090391E+03   -0.77782E-06   -0.31844E-05  3240   0.471E-02
 147 F= -.12806009E+03 E0= -.12802024E+03  d E =0.148737E-02
quench:  g(F)=  0.000E+00 g(S)=  0.000E+00 dE (1.order)= 0.000E+00
 bond charge predicted
       N       E                     dE             d eps       ncg     rms          rms(c)
DAV:   1    -0.127739657231E+03    0.32043E+00   -0.46183E+02  4500   0.415E+01    0.114E+00
DAV:   2    -0.128043429468E+03   -0.30377E+00   -0.34200E+00  5210   0.617E+00    0.103E+00
DAV:   3    -0.128036943766E+03    0.64857E-02   -0.18330E-01  4930   0.564E+00    0.672E-01
DAV:   4    -0.128031264390E+03    0.56794E-02   -0.47234E-02  5290   0.450E+00    0.568E-01
DAV:   5    -0.128022374484E+03    0.88899E-02   -0.31566E-02  5940   0.335E+00    0.354E-01
DAV:   6    -0.128018980950E+03    0.33935E-02   -0.34615E-02  6360   0.189E+00    0.119E-01
DAV:   7    -0.128019365132E+03   -0.38418E-03   -0.80771E-03  4900   0.700E-01    0.822E-02
DAV:   8    -0.128019296698E+03    0.68434E-04   -0.25783E-03  4680   0.417E-01    0.537E-02
DAV:   9    -0.128019271747E+03    0.24950E-04   -0.50548E-04  4640   0.224E-01    0.327E-02
DAV:  10    -0.128019264926E+03    0.68216E-05   -0.20940E-04  4800   0.179E-01    0.166E-02
DAV:  11    -0.128019274500E+03   -0.95749E-05   -0.85517E-05  4720   0.734E-02
 148 F= -.12801927E+03 E0= -.12798043E+03  d E =0.408159E-01
quench:  g(F)=  0.000E+00 g(S)=  0.000E+00 dE (1.order)= 0.000E+00
 bond charge predicted
       N       E                     dE             d eps       ncg     rms          rms(c)
DAV:   1    -0.127932244544E+03    0.87020E-01   -0.16348E+02  4500   0.280E+01    0.897E-01
DAV:   2    -0.128000851456E+03   -0.68607E-01   -0.86706E-01  4880   0.630E+00    0.101E+00
DAV:   3    -0.127993703713E+03    0.71477E-02   -0.14352E-01  4860   0.467E+00    0.458E-01
DAV:   4    -0.127997190937E+03   -0.34872E-02   -0.31001E-02  6130   0.329E+00    0.359E-01
DAV:   5    -0.127989157723E+03    0.80332E-02   -0.34760E-02  4990   0.416E+00    0.245E-01
DAV:   6    -0.127987903865E+03    0.12539E-02   -0.98537E-03  5360   0.138E+00    0.834E-02
DAV:   7    -0.127988100018E+03   -0.19615E-03   -0.41024E-03  5140   0.453E-01    0.435E-02
DAV:   8    -0.127988185461E+03   -0.85442E-04   -0.13552E-03  4680   0.247E-01    0.304E-02
DAV:   9    -0.127988182515E+03    0.29458E-05   -0.24006E-04  4740   0.113E-01    0.181E-02
DAV:  10    -0.127988178814E+03    0.37010E-05   -0.42587E-05  4380   0.951E-02
 149 F= -.12798818E+03 E0= -.12794770E+03  d E =0.310957E-01
quench:  g(F)=  0.000E+00 g(S)=  0.000E+00 dE (1.order)= 0.000E+00
 bond charge predicted
       N       E                     dE             d eps       ncg     rms          rms(c)
DAV:   1    -0.127990718420E+03   -0.25359E-02   -0.98578E+01  4500   0.213E+01    0.602E-01
DAV:   2    -0.128017915239E+03   -0.27197E-01   -0.37125E-01  4780   0.287E+00    0.528E-01
DAV:   3    -0.128016493775E+03    0.14215E-02   -0.44978E-02  4890   0.318E+00    0.376E-01
DAV:   4    -0.128016599682E+03   -0.10591E-03   -0.20856E-02  5590   0.332E+00    0.290E-01
DAV:   5    -0.128011692430E+03    0.49073E-02   -0.16572E-02  7270   0.278E+00    0.128E-01
DAV:   6    -0.128011398739E+03    0.29369E-03   -0.62248E-03  6700   0.875E-01    0.513E-02
DAV:   7    -0.128011468161E+03   -0.69423E-04   -0.17071E-03  4860   0.221E-01    0.328E-02
DAV:   8    -0.128011461581E+03    0.65802E-05   -0.36167E-04  4620   0.138E-01    0.246E-02
DAV:   9    -0.128011450885E+03    0.10696E-04   -0.61449E-05  4720   0.906E-02    0.146E-02
DAV:  10    -0.128011446629E+03    0.42562E-05   -0.24005E-05  2890   0.828E-02
 150 F= -.12801145E+03 E0= -.12797182E+03  d E =-.232678E-01
quench:  g(F)=  0.000E+00 g(S)=  0.000E+00 dE (1.order)= 0.000E+00
 bond charge predicted
       N       E                     dE             d eps       ncg     rms          rms(c)
DAV:   1    -0.128007135049E+03    0.43158E-02   -0.15497E+01  4500   0.835E+00    0.232E-01
DAV:   2    -0.128011677631E+03   -0.45426E-02   -0.59688E-02  4530   0.990E-01    0.184E-01
DAV:   3    -0.128011490884E+03    0.18675E-03   -0.54211E-03  4980   0.105E+00    0.150E-01
DAV:   4    -0.128011307794E+03    0.18309E-03   -0.27119E-03  5080   0.121E+00    0.978E-02
DAV:   5    -0.128010936505E+03    0.37129E-03   -0.23662E-03  7220   0.110E+00    0.553E-02
DAV:   6    -0.128010778946E+03    0.15756E-03   -0.85161E-04  7840   0.444E-01    0.135E-02
DAV:   7    -0.128010790980E+03   -0.12034E-04   -0.21347E-04  4800   0.733E-02    0.125E-02
DAV:   8    -0.128010790055E+03    0.92446E-06   -0.31451E-05  3590   0.430E-02
 151 F= -.12801079E+03 E0= -.12797150E+03  d E =0.656574E-03
quench:  g(F)=  0.000E+00 g(S)=  0.000E+00 dE (1.order)= 0.000E+00
 bond charge predicted
       N       E                     dE             d eps       ncg     rms          rms(c)
DAV:   1    -0.128007995289E+03    0.27957E-02   -0.26162E+00  4500   0.337E+00    0.938E-02
DAV:   2    -0.128008970176E+03   -0.97489E-03   -0.11822E-02  4600   0.433E-01    0.764E-02
DAV:   3    -0.128008948602E+03    0.21574E-04   -0.99874E-04  4720   0.387E-01    0.590E-02
DAV:   4    -0.128008904237E+03    0.44366E-04   -0.31689E-04  4920   0.392E-01    0.373E-02
DAV:   5    -0.128008905036E+03   -0.79987E-06   -0.37078E-04  5100   0.463E-01    0.314E-02
DAV:   6    -0.128008844570E+03    0.60466E-04   -0.16417E-04  5360   0.255E-01    0.571E-03
DAV:   7    -0.128008849785E+03   -0.52140E-05   -0.70232E-05  4920   0.437E-02
 152 F= -.12800885E+03 E0= -.12796974E+03  d E =0.194027E-02
quench:  g(F)=  0.000E+00 g(S)=  0.000E+00 dE (1.order)= 0.000E+00
 bond charge predicted
       N       E                     dE             d eps       ncg     rms          rms(c)
DAV:   1    -0.127993815694E+03    0.15029E-01   -0.15331E+01  4500   0.795E+00    0.204E-01
DAV:   2    -0.127999313046E+03   -0.54974E-02   -0.66137E-02  4650   0.899E-01    0.169E-01
DAV:   3    -0.127999133273E+03    0.17977E-03   -0.43634E-03  4740   0.910E-01    0.132E-01
DAV:   4    -0.127998983979E+03    0.14929E-03   -0.19584E-03  5110   0.102E+00    0.993E-02
DAV:   5    -0.127998701712E+03    0.28227E-03   -0.18257E-03  7250   0.940E-01    0.651E-02
DAV:   6    -0.127998515784E+03    0.18593E-03   -0.94898E-04  7690   0.442E-01    0.171E-02
DAV:   7    -0.127998525098E+03   -0.93139E-05   -0.22196E-04  4800   0.861E-02    0.124E-02
DAV:   8    -0.127998523899E+03    0.11991E-05   -0.34889E-05  4120   0.445E-02
 153 F= -.12799852E+03 E0= -.12795976E+03  d E =0.103259E-01
quench:  g(F)=  0.000E+00 g(S)=  0.000E+00 dE (1.order)= 0.000E+00
 bond charge predicted
       N       E                     dE             d eps       ncg     rms          rms(c)
DAV:   1    -0.127968404537E+03    0.30121E-01   -0.49500E+01  4500   0.145E+01    0.372E-01
DAV:   2    -0.127983344395E+03   -0.14940E-01   -0.19030E-01  4590   0.150E+00    0.311E-01
DAV:   3    -0.127982103054E+03    0.12413E-02   -0.10848E-02  5110   0.150E+00    0.227E-01
DAV:   4    -0.127981953352E+03    0.14970E-03   -0.66011E-03  5670   0.192E+00    0.182E-01
DAV:   5    -0.127980564285E+03    0.13891E-02   -0.73718E-03  8330   0.176E+00    0.971E-02
DAV:   6    -0.127980059531E+03    0.50475E-03   -0.26573E-03  7290   0.744E-01    0.280E-02
DAV:   7    -0.127980096235E+03   -0.36704E-04   -0.72324E-04  4800   0.148E-01    0.245E-02
DAV:   8    -0.127980090937E+03    0.52979E-05   -0.17472E-04  4660   0.937E-02    0.150E-02
DAV:   9    -0.127980085923E+03    0.50138E-05   -0.28330E-05  3510   0.532E-02
 154 F= -.12798009E+03 E0= -.12794154E+03  d E =0.184380E-01
quench:  g(F)=  0.000E+00 g(S)=  0.000E+00 dE (1.order)= 0.000E+00
 bond charge predicted
       N       E                     dE             d eps       ncg     rms          rms(c)
DAV:   1    -0.127883868625E+03    0.96222E-01   -0.13138E+02  4500   0.230E+01    0.620E-01
DAV:   2    -0.127942105487E+03   -0.58237E-01   -0.69117E-01  4980   0.313E+00    0.554E-01
DAV:   3    -0.127940340368E+03    0.17651E-02   -0.50450E-02  4760   0.309E+00    0.378E-01
DAV:   4    -0.127939057311E+03    0.12831E-02   -0.16849E-02  5020   0.286E+00    0.312E-01
DAV:   5    -0.127936096749E+03    0.29606E-02   -0.13345E-02  6080   0.249E+00    0.204E-01
DAV:   6    -0.127934780701E+03    0.13160E-02   -0.10388E-02  6700   0.114E+00    0.524E-02
DAV:   7    -0.127934898053E+03   -0.11735E-03   -0.25091E-03  4900   0.254E-01    0.439E-02
DAV:   8    -0.127934885151E+03    0.12902E-04   -0.54594E-04  4650   0.189E-01    0.278E-02
DAV:   9    -0.127934870475E+03    0.14676E-04   -0.97778E-05  4570   0.865E-02    0.155E-02
DAV:  10    -0.127934868607E+03    0.18689E-05   -0.31362E-05  3300   0.818E-02
 155 F= -.12793487E+03 E0= -.12789647E+03  d E =0.452173E-01
quench:  g(F)=  0.000E+00 g(S)=  0.000E+00 dE (1.order)= 0.000E+00
 bond charge predicted
       N       E                     dE             d eps       ncg     rms          rms(c)
DAV:   1    -0.127942685007E+03   -0.78145E-02   -0.34212E+01  4500   0.121E+01    0.373E-01
DAV:   2    -0.127960833491E+03   -0.18148E-01   -0.21649E-01  4760   0.252E+00    0.394E-01
DAV:   3    -0.127960283093E+03    0.55040E-03   -0.26906E-02  4770   0.180E+00    0.193E-01
DAV:   4    -0.127959600999E+03    0.68209E-03   -0.34035E-03  4590   0.622E-01    0.122E-01
DAV:   5    -0.127959349815E+03    0.25118E-03   -0.19717E-03  4860   0.398E-01    0.397E-02
DAV:   6    -0.127959353036E+03   -0.32210E-05   -0.46472E-04  4720   0.278E-01    0.258E-02
DAV:   7    -0.127959345911E+03    0.71248E-05   -0.12589E-04  4690   0.154E-01    0.120E-02
DAV:   8    -0.127959346960E+03   -0.10492E-05   -0.25846E-05  2970   0.101E-01
 156 F= -.12795935E+03 E0= -.12792097E+03  d E =-.244784E-01
quench:  g(F)=  0.000E+00 g(S)=  0.000E+00 dE (1.order)= 0.000E+00
 bond charge predicted
       N       E                     dE             d eps       ncg     rms          rms(c)
DAV:   1    -0.127960050565E+03   -0.70465E-03   -0.98234E-01  4520   0.204E+00    0.614E-02
DAV:   2    -0.127960530371E+03   -0.47981E-03   -0.58206E-03  4540   0.328E-01    0.495E-02
DAV:   3    -0.127960546832E+03   -0.16461E-04   -0.59648E-04  4570   0.282E-01    0.351E-02
DAV:   4    -0.127960544168E+03    0.26636E-05   -0.18893E-04  4800   0.292E-01    0.285E-02
DAV:   5    -0.127960526303E+03    0.17865E-04   -0.11465E-04  3770   0.261E-01    0.173E-02
DAV:   6    -0.127960512292E+03    0.14012E-04   -0.36581E-05  2900   0.125E-01    0.435E-03
DAV:   7    -0.127960513099E+03   -0.80742E-06   -0.23526E-05  2910   0.467E-02
 157 F= -.12796051E+03 E0= -.12792199E+03  d E =-.116614E-02
quench:  g(F)=  0.000E+00 g(S)=  0.000E+00 dE (1.order)= 0.000E+00
 bond charge predicted
       N       E                     dE             d eps       ncg     rms          rms(c)
DAV:   1    -0.127959357852E+03    0.11544E-02   -0.50705E-01  4500   0.150E+00    0.414E-02
DAV:   2    -0.127959548966E+03   -0.19111E-03   -0.23298E-03  4620   0.197E-01    0.331E-02
DAV:   3    -0.127959544615E+03    0.43512E-05   -0.19989E-04  4750   0.163E-01    0.256E-02
DAV:   4    -0.127959528221E+03    0.16394E-04   -0.32975E-05  3550   0.108E-01    0.106E-02
DAV:   5    -0.127959536736E+03   -0.85152E-05   -0.38510E-05  2730   0.148E-01
 158 F= -.12795954E+03 E0= -.12792089E+03  d E =0.976363E-03
quench:  g(F)=  0.000E+00 g(S)=  0.000E+00 dE (1.order)= 0.000E+00
 bond charge predicted
       N       E                     dE             d eps       ncg     rms          rms(c)
DAV:   1    -0.127957117883E+03    0.24103E-02   -0.88357E-01  4540   0.193E+00    0.491E-02
DAV:   2    -0.127957441863E+03   -0.32398E-03   -0.38624E-03  4540   0.213E-01    0.376E-02
DAV:   3    -0.127957422681E+03    0.19182E-04   -0.17976E-04  4770   0.145E-01    0.286E-02
DAV:   4    -0.127957402946E+03    0.19735E-04   -0.51287E-05  4830   0.133E-01    0.161E-02
DAV:   5    -0.127957406756E+03   -0.38097E-05   -0.43715E-05  3130   0.149E-01
 159 F= -.12795741E+03 E0= -.12791866E+03  d E =0.212998E-02
quench:  g(F)=  0.000E+00 g(S)=  0.000E+00 dE (1.order)= 0.000E+00
 bond charge predicted
       N       E                     dE             d eps       ncg     rms          rms(c)
DAV:   1    -0.127955475008E+03    0.19279E-02   -0.18181E+00  4500   0.286E+00    0.835E-02
DAV:   2    -0.127956133710E+03   -0.65870E-03   -0.80666E-03  4590   0.477E-01    0.780E-02
DAV:   3    -0.127956129818E+03    0.38917E-05   -0.12189E-03  4590   0.413E-01    0.504E-02
DAV:   4    -0.127956126993E+03    0.28247E-05   -0.32419E-04  4950   0.382E-01    0.392E-02
DAV:   5    -0.127956070985E+03    0.56008E-04   -0.30501E-04  5230   0.408E-01    0.183E-02
DAV:   6    -0.127956053544E+03    0.17441E-04   -0.10598E-04  5690   0.156E-01    0.469E-03
DAV:   7    -0.127956057214E+03   -0.36702E-05   -0.49678E-05  4430   0.357E-02
 160 F= -.12795606E+03 E0= -.12791730E+03  d E =0.134954E-02
quench:  g(F)=  0.000E+00 g(S)=  0.000E+00 dE (1.order)= 0.000E+00
 bond charge predicted
       N       E                     dE             d eps       ncg     rms          rms(c)
DAV:   1    -0.127956092934E+03   -0.39389E-04   -0.12572E+00  4500   0.232E+00    0.636E-02
DAV:   2    -0.127956615785E+03   -0.52285E-03   -0.61710E-03  4650   0.343E-01    0.585E-02
DAV:   3    -0.127956606247E+03    0.95383E-05   -0.58691E-04  4670   0.263E-01    0.376E-02
DAV:   4    -0.127956565294E+03    0.40953E-04   -0.73743E-05  5250   0.138E-01    0.174E-02
DAV:   5    -0.127956564709E+03    0.58473E-06   -0.44113E-05  3780   0.111E-01
 161 F= -.12795656E+03 E0= -.12791777E+03  d E =-.507495E-03
quench:  g(F)=  0.000E+00 g(S)=  0.000E+00 dE (1.order)= 0.000E+00
 bond charge predicted
       N       E                     dE             d eps       ncg     rms          rms(c)
DAV:   1    -0.127955861811E+03    0.70348E-03   -0.24158E+00  4560   0.337E+00    0.103E-01
DAV:   2    -0.127956589482E+03   -0.72767E-03   -0.93696E-03  4740   0.572E-01    0.940E-02
DAV:   3    -0.127956608299E+03   -0.18817E-04   -0.19118E-03  4690   0.537E-01    0.650E-02
DAV:   4    -0.127956695988E+03   -0.87690E-04   -0.72317E-04  4800   0.610E-01    0.632E-02
DAV:   5    -0.127956501038E+03    0.19495E-03   -0.44905E-04  5390   0.503E-01    0.141E-02
DAV:   6    -0.127956503567E+03   -0.25293E-05   -0.13472E-04  5980   0.981E-02    0.798E-03
DAV:   7    -0.127956505303E+03   -0.17357E-05   -0.48615E-05  4370   0.551E-02
 162 F= -.12795651E+03 E0= -.12791790E+03  d E =0.594062E-04
quench:  g(F)=  0.000E+00 g(S)=  0.000E+00 dE (1.order)= 0.000E+00
 bond charge predicted
       N       E                     dE             d eps       ncg     rms          rms(c)
DAV:   1    -0.127944638028E+03    0.11866E-01   -0.12695E+01  4500   0.750E+00    0.198E-01
DAV:   2    -0.127947670513E+03   -0.30325E-02   -0.41647E-02  4620   0.770E-01    0.158E-01
DAV:   3    -0.127947431976E+03    0.23854E-03   -0.34599E-03  4940   0.893E-01    0.127E-01
DAV:   4    -0.127947302704E+03    0.12927E-03   -0.21883E-03  5420   0.110E+00    0.864E-02
DAV:   5    -0.127946942453E+03    0.36025E-03   -0.19914E-03  8320   0.924E-01    0.440E-02
DAV:   6    -0.127946842745E+03    0.99708E-04   -0.59048E-04  7270   0.356E-01    0.121E-02
DAV:   7    -0.127946853708E+03   -0.10963E-04   -0.17746E-04  4800   0.527E-02    0.102E-02
DAV:   8    -0.127946851731E+03    0.19767E-05   -0.11208E-05  2980   0.279E-02
 163 F= -.12794685E+03 E0= -.12790845E+03  d E =0.965357E-02
quench:  g(F)=  0.000E+00 g(S)=  0.000E+00 dE (1.order)= 0.000E+00
 bond charge predicted
       N       E                     dE             d eps       ncg     rms          rms(c)
DAV:   1    -0.127950988801E+03   -0.41351E-02   -0.34552E+00  4500   0.374E+00    0.931E-02
DAV:   2    -0.127952153420E+03   -0.11646E-02   -0.14091E-02  4580   0.366E-01    0.736E-02
DAV:   3    -0.127952058125E+03    0.95295E-04   -0.55722E-04  4810   0.267E-01    0.536E-02
DAV:   4    -0.127952028374E+03    0.29751E-04   -0.28679E-04  5150   0.389E-01    0.429E-02
DAV:   5    -0.127952028293E+03    0.81156E-07   -0.48018E-04  6600   0.492E-01    0.360E-02
DAV:   6    -0.127951945945E+03    0.82348E-04   -0.22261E-04  6780   0.276E-01    0.718E-03
DAV:   7    -0.127951949445E+03   -0.35004E-05   -0.57110E-05  4650   0.324E-02
 164 F= -.12795195E+03 E0= -.12791342E+03  d E =-.509771E-02
quench:  g(F)=  0.000E+00 g(S)=  0.000E+00 dE (1.order)= 0.000E+00
 reached required accuracy - stopping structural energy minimisation
