 running on   35 total cores
 distrk:  each k-point on   35 cores,    1 groups
 distr:  one band on    1 cores,   35 groups
 using from now: INCAR     
 vasp.5.4.1 24Jun15 (build Oct 26 2018 17:15:27) complex                        
  
 POSCAR found type information on POSCAR  O 
 POSCAR found :  1 types and       2 ions
 scaLAPACK will be used

 ----------------------------------------------------------------------------- 
|                                                                             |
|           W    W    AA    RRRRR   N    N  II  N    N   GGGG   !!!           |
|           W    W   A  A   R    R  NN   N  II  NN   N  G    G  !!!           |
|           W    W  A    A  R    R  N N  N  II  N N  N  G       !!!           |
|           W WW W  AAAAAA  RRRRR   N  N N  II  N  N N  G  GGG   !            |
|           WW  WW  A    A  R   R   N   NN  II  N   NN  G    G                |
|           W    W  A    A  R    R  N    N  II  N    N   GGGG   !!!           |
|                                                                             |
|      For optimal performance we recommend to set                            |
|        NCORE= 4 - approx SQRT( number of cores)                             |
|      NCORE specifies how many cores store one orbital (NPAR=cpu/NCORE).     |
|      This setting can  greatly improve the performance of VASP for DFT.     |
|      The default, NPAR=number of cores might be grossly inefficient         |
|      on modern multi-core architectures or massively parallel machines.     |
|      Do your own testing !!!!                                               |
|      Unfortunately you need to use the default for GW and RPA calculations. |
|      (for HF NCORE is supported but not extensively tested yet)             |
|                                                                             |
 ----------------------------------------------------------------------------- 

 LDA part: xc-table for Ceperly-Alder, standard interpolation
 POSCAR, INCAR and KPOINTS ok, starting setup
 WARNING: small aliasing (wrap around) errors must be expected
 FFT: planning ...
 WAVECAR not read
 entering main loop
       N       E                     dE             d eps       ncg     rms          rms(c)
DAV:   1     0.836592104876E+02    0.83659E+02   -0.21014E+03   210   0.124E+02
DAV:   2     0.846891394625E+01   -0.75190E+02   -0.75190E+02   210   0.491E+01
DAV:   3    -0.616966665759E+01   -0.14639E+02   -0.13306E+02   245   0.118E+01
DAV:   4    -0.651873142300E+01   -0.34906E+00   -0.34906E+00   140   0.194E+00
DAV:   5    -0.653409318052E+01   -0.15362E-01   -0.15362E-01   210   0.401E-01    0.775E+00
DAV:   6    -0.598768386439E+01    0.54641E+00   -0.18513E+00   140   0.375E+00    0.332E+00
DAV:   7    -0.608874704030E+01   -0.10106E+00   -0.31611E-01   210   0.160E+00    0.141E+00
DAV:   8    -0.607754252662E+01    0.11205E-01   -0.79917E-02   140   0.770E-01    0.468E-01
DAV:   9    -0.607812912200E+01   -0.58660E-03   -0.74450E-03   245   0.276E-01    0.225E-01
DAV:  10    -0.608025897108E+01   -0.21298E-02   -0.21071E-03   140   0.167E-01    0.683E-02
DAV:  11    -0.608176976029E+01   -0.15108E-02   -0.47084E-04   175   0.818E-02    0.327E-02
DAV:  12    -0.608329822126E+01   -0.15285E-02   -0.35946E-04   140   0.681E-02    0.102E-02
DAV:  13    -0.608396638128E+01   -0.66816E-03   -0.10489E-04   140   0.350E-02    0.695E-03
DAV:  14    -0.608540142362E+01   -0.14350E-02   -0.30244E-04   140   0.388E-02    0.387E-03
DAV:  15    -0.608593685749E+01   -0.53543E-03   -0.82267E-05   140   0.213E-02    0.242E-03
DAV:  16    -0.608620543237E+01   -0.26857E-03   -0.15969E-05   140   0.126E-02    0.179E-03
DAV:  17    -0.608647668336E+01   -0.27125E-03   -0.23865E-05   140   0.117E-02    0.101E-03
DAV:  18    -0.608655429914E+01   -0.77616E-04   -0.38216E-06   140   0.553E-03    0.634E-04
DAV:  19    -0.608662747634E+01   -0.73177E-04   -0.14883E-06   140   0.303E-03    0.404E-04
DAV:  20    -0.608668819134E+01   -0.60715E-04   -0.12466E-06   140   0.228E-03    0.202E-04
DAV:  21    -0.608671159580E+01   -0.23404E-04   -0.21237E-07   140   0.130E-03    0.139E-04
DAV:  22    -0.608672083739E+01   -0.92416E-05   -0.18229E-07   140   0.117E-03
   1 F= -.60867208E+01 E0= -.60867208E+01  d E =-.608672E+01  mag=     2.0000
 curvature:   0.00 expect dE= 0.000E+00 dE for cont linesearch  0.000E+00
 trial: gam= 0.00000 g(F)=  0.171E+02 g(S)=  0.000E+00 ort = 0.000E+00 (trialstep = 0.100E+01)
 search vector abs. value=  0.171E+02
 bond charge predicted
       N       E                     dE             d eps       ncg     rms          rms(c)
DAV:   1    -0.826219501629E+01   -0.21755E+01   -0.66052E+02   140   0.701E+01    0.107E+01
DAV:   2    -0.894667288671E+01   -0.68448E+00   -0.17096E+01   210   0.113E+01    0.593E+00
DAV:   3    -0.903990854430E+01   -0.93236E-01   -0.28948E+00   140   0.432E+00    0.312E+00
DAV:   4    -0.902398700367E+01    0.15922E-01   -0.23697E-01   140   0.154E+00    0.145E+00
DAV:   5    -0.903837374180E+01   -0.14387E-01   -0.26375E-01   175   0.107E+00    0.114E+00
DAV:   6    -0.904063458465E+01   -0.22608E-02   -0.13193E-01   140   0.818E-01    0.231E-01
DAV:   7    -0.904723839134E+01   -0.66038E-02   -0.69229E-03   140   0.252E-01    0.871E-02
DAV:   8    -0.905179931071E+01   -0.45609E-02   -0.62912E-04   140   0.826E-02    0.449E-02
DAV:   9    -0.905529070099E+01   -0.34914E-02   -0.30329E-04   140   0.528E-02    0.185E-02
DAV:  10    -0.905750117052E+01   -0.22105E-02   -0.94901E-05   140   0.290E-02    0.964E-03
DAV:  11    -0.905946724396E+01   -0.19661E-02   -0.87028E-05   140   0.235E-02    0.607E-03
DAV:  12    -0.906161510043E+01   -0.21479E-02   -0.13160E-04   140   0.232E-02    0.395E-03
DAV:  13    -0.906256254656E+01   -0.94745E-03   -0.38487E-05   140   0.153E-02    0.241E-03
DAV:  14    -0.906319926272E+01   -0.63672E-03   -0.16202E-05   140   0.114E-02    0.152E-03
DAV:  15    -0.906342524593E+01   -0.22598E-03   -0.43201E-06   140   0.705E-03    0.811E-04
DAV:  16    -0.906352026014E+01   -0.95014E-04   -0.14528E-06   140   0.397E-03    0.537E-04
DAV:  17    -0.906359057914E+01   -0.70319E-04   -0.66168E-07   140   0.212E-03    0.353E-04
DAV:  18    -0.906363333792E+01   -0.42759E-04   -0.49383E-07   140   0.170E-03    0.200E-04
DAV:  19    -0.906364745629E+01   -0.14118E-04   -0.12236E-07   140   0.118E-03    0.126E-04
DAV:  20    -0.906365032858E+01   -0.28723E-05   -0.74912E-08   140   0.106E-03
   2 F= -.90636503E+01 E0= -.90636503E+01  d E =-.297693E+01  mag=     2.0000
 trial-energy change:   -2.976929  1 .order   -7.173208  -17.103218    2.756802
 step:   0.5471(harm=  0.8612)  dis= 0.22223  next Energy=   -10.077927 (dE=-0.399E+01)
 bond charge predicted
       N       E                     dE             d eps       ncg     rms          rms(c)
DAV:   1    -0.955537770253E+01   -0.49173E+00   -0.17825E+02   140   0.386E+01    0.521E+00
DAV:   2    -0.967087333005E+01   -0.11550E+00   -0.27888E+00   175   0.504E+00    0.278E+00
DAV:   3    -0.975034321738E+01   -0.79470E-01   -0.29469E-01   210   0.161E+00    0.113E+00
DAV:   4    -0.975776058709E+01   -0.74174E-02   -0.83849E-02   140   0.686E-01    0.554E-01
DAV:   5    -0.975812032683E+01   -0.35974E-03   -0.27391E-02   210   0.434E-01    0.287E-01
DAV:   6    -0.976286476750E+01   -0.47444E-02   -0.46183E-03   140   0.216E-01    0.122E-01
DAV:   7    -0.976548505119E+01   -0.26203E-02   -0.17465E-03   140   0.117E-01    0.601E-02
DAV:   8    -0.976654371255E+01   -0.10587E-02   -0.32229E-04   140   0.640E-02    0.148E-02
DAV:   9    -0.976730283715E+01   -0.75912E-03   -0.63749E-05   210   0.239E-02    0.889E-03
DAV:  10    -0.976862033667E+01   -0.13175E-02   -0.45271E-05   140   0.173E-02    0.416E-03
DAV:  11    -0.976935604368E+01   -0.73571E-03   -0.22715E-05   140   0.114E-02    0.259E-03
DAV:  12    -0.976988753625E+01   -0.53149E-03   -0.14321E-05   210   0.873E-03    0.160E-03
DAV:  13    -0.977033605001E+01   -0.44851E-03   -0.15326E-05   140   0.889E-03    0.100E-03
DAV:  14    -0.977048921902E+01   -0.15317E-03   -0.28164E-06   245   0.532E-03    0.664E-04
DAV:  15    -0.977058973071E+01   -0.10051E-03   -0.56089E-07   140   0.269E-03    0.456E-04
DAV:  16    -0.977061941953E+01   -0.29689E-04   -0.28280E-07   140   0.178E-03    0.257E-04
DAV:  17    -0.977064515067E+01   -0.25731E-04   -0.12151E-07   140   0.113E-03    0.202E-04
DAV:  18    -0.977065847926E+01   -0.13329E-04   -0.15522E-07   175   0.119E-03    0.958E-05
DAV:  19    -0.977065136195E+01    0.71173E-05   -0.48642E-08   140   0.793E-04
   3 F= -.97706514E+01 E0= -.97706514E+01  d E =-.368393E+01  mag=     2.0000
 curvature:   1.77 expect dE= 0.137E-01 dE for cont linesearch  0.137E-01
 ZBRENT: interpolating
 opt :   0.5997  next Energy=    -9.780210 (dE=-0.369E+01)
 bond charge predicted
       N       E                     dE             d eps       ncg     rms          rms(c)
DAV:   1    -0.976997136973E+01    0.68711E-03   -0.23932E+00   140   0.446E+00    0.678E-01
DAV:   2    -0.976824648758E+01    0.17249E-02   -0.50556E-02   175   0.671E-01    0.351E-01
DAV:   3    -0.977157457202E+01   -0.33281E-02   -0.56879E-03   210   0.255E-01    0.142E-01
DAV:   4    -0.977214199604E+01   -0.56742E-03   -0.14939E-03   140   0.944E-02    0.843E-02
DAV:   5    -0.977213041049E+01    0.11586E-04   -0.75646E-04   140   0.755E-02    0.409E-02
DAV:   6    -0.977231336463E+01   -0.18295E-03   -0.11370E-04   140   0.345E-02    0.138E-02
DAV:   7    -0.977250113967E+01   -0.18778E-03   -0.26754E-05   140   0.173E-02    0.512E-03
DAV:   8    -0.977259323122E+01   -0.92092E-04   -0.56236E-06   140   0.989E-03    0.179E-03
DAV:   9    -0.977268128780E+01   -0.88057E-04   -0.14684E-06   140   0.416E-03    0.100E-03
DAV:  10    -0.977274224292E+01   -0.60955E-04   -0.90732E-07   140   0.321E-03    0.508E-04
DAV:  11    -0.977276122562E+01   -0.18983E-04   -0.35892E-07   140   0.185E-03    0.330E-04
DAV:  12    -0.977277353397E+01   -0.12308E-04   -0.35383E-07   140   0.154E-03    0.221E-04
DAV:  13    -0.977277692110E+01   -0.33871E-05   -0.31048E-07   140   0.130E-03
   4 F= -.97727769E+01 E0= -.97727769E+01  d E =-.368606E+01  mag=     2.0000
 curvature:  -1.24 expect dE=-0.511E-02 dE for cont linesearch -0.511E-02
 ZBRENT: interpolating
 opt :   0.5775  next Energy=    -9.775727 (dE=-0.369E+01)
 bond charge predicted
       N       E                     dE             d eps       ncg     rms          rms(c)
DAV:   1    -0.977534316821E+01   -0.25696E-02   -0.42875E-01   140   0.190E+00    0.284E-01
DAV:   2    -0.977481118739E+01    0.53198E-03   -0.96939E-03   175   0.291E-01    0.148E-01
DAV:   3    -0.977559369140E+01   -0.78250E-03   -0.10526E-03   140   0.114E-01    0.610E-02
DAV:   4    -0.977572455633E+01   -0.13086E-03   -0.38740E-04   140   0.494E-02    0.380E-02
DAV:   5    -0.977574055929E+01   -0.16003E-04   -0.13511E-04   140   0.340E-02    0.175E-02
DAV:   6    -0.977579989518E+01   -0.59336E-04   -0.20255E-05   140   0.151E-02    0.625E-03
DAV:   7    -0.977587422405E+01   -0.74329E-04   -0.68394E-06   140   0.922E-03    0.250E-03
DAV:   8    -0.977589837891E+01   -0.24155E-04   -0.18395E-06   210   0.571E-03    0.766E-04
DAV:   9    -0.977589838540E+01   -0.64961E-08   -0.33416E-07   140   0.212E-03
   5 F= -.97758984E+01 E0= -.97758984E+01  d E =-.368918E+01  mag=     2.0000
 curvature:  -0.72 expect dE=-0.650E-05 dE for cont linesearch -0.650E-05
 ZBRENT: interpolating
 opt :   0.5764  next Energy=    -9.775905 (dE=-0.369E+01)
 bond charge predicted
       N       E                     dE             d eps       ncg     rms          rms(c)
DAV:   1    -0.977590468636E+01   -0.63075E-05   -0.97491E-04   210   0.902E-02    0.137E-02
DAV:   2    -0.977590011357E+01    0.45728E-05   -0.17509E-05   140   0.125E-02
   6 F= -.97759001E+01 E0= -.97759001E+01  d E =-.368918E+01  mag=     2.0000
 curvature:  -0.75 expect dE=-0.537E-07 dE for cont linesearch -0.537E-07
 trial: gam= 0.00000 g(F)=  0.714E-07 g(S)=  0.000E+00 ort =-0.110E-02 (trialstep = 0.915E+00)
 search vector abs. value=  0.715E-07
 reached required accuracy - stopping structural energy minimisation
