 vasp.5.4.1 05Feb16 (build Nov 22 2018 20:17:51) complex                        
  
 POSCAR found type information on POSCAR  Cu Ag
 05/POSCAR found :  2 types and      37 ions
 scaLAPACK will be used

 ----------------------------------------------------------------------------- 
|                                                                             |
|           W    W    AA    RRRRR   N    N  II  N    N   GGGG   !!!           |
|           W    W   A  A   R    R  NN   N  II  NN   N  G    G  !!!           |
|           W    W  A    A  R    R  N N  N  II  N N  N  G       !!!           |
|           W WW W  AAAAAA  RRRRR   N  N N  II  N  N N  G  GGG   !            |
|           WW  WW  A    A  R   R   N   NN  II  N   NN  G    G                |
|           W    W  A    A  R    R  N    N  II  N    N   GGGG   !!!           |
|                                                                             |
|      For optimal performance we recommend to set                            |
|        NCORE= 4 - approx SQRT( number of cores)                             |
|      NCORE specifies how many cores store one orbital (NPAR=cpu/NCORE).     |
|      This setting can  greatly improve the performance of VASP for DFT.     |
|      The default, NPAR=number of cores might be grossly inefficient         |
|      on modern multi-core architectures or massively parallel machines.     |
|      Do your own testing !!!!                                               |
|      Unfortunately you need to use the default for GW and RPA calculations. |
|      (for HF NCORE is supported but not extensively tested yet)             |
|                                                                             |
 ----------------------------------------------------------------------------- 

 LDA part: xc-table for Ceperly-Alder, standard interpolation
 POSCAR found type information on POSCAR  Cu Ag
 00/POSCAR found :  2 types and      37 ions
 POSCAR found type information on POSCAR  Cu Ag
 06/POSCAR found :  2 types and      37 ions
 Jacobian:    19.6723208379109     
 POSCAR, INCAR and KPOINTS ok, starting setup
 WARNING: small aliasing (wrap around) errors must be expected
 FFT: planning ...
 WAVECAR not read
 entering main loop
       N       E                     dE             d eps       ncg     rms          rms(c)
DAV:   1     0.307823627716E+04    0.30782E+04   -0.17785E+05  4464   0.177E+03
DAV:   2     0.170871636210E+03   -0.29074E+04   -0.27663E+04  4464   0.404E+02
DAV:   3    -0.143029302873E+03   -0.31390E+03   -0.29540E+03  4624   0.167E+02
DAV:   4    -0.155306920664E+03   -0.12278E+02   -0.12108E+02  4760   0.369E+01
DAV:   5    -0.155420206267E+03   -0.11329E+00   -0.11316E+00  4880   0.302E+00    0.396E+01
DAV:   6    -0.140831070096E+03    0.14589E+02   -0.31484E+02  4848   0.938E+01    0.201E+01
DAV:   7    -0.127913499074E+03    0.12918E+02   -0.60815E+01  5008   0.500E+01    0.314E+00
DAV:   8    -0.128456743093E+03   -0.54324E+00   -0.67793E+00  5136   0.361E+01    0.449E+00
DAV:   9    -0.128003838437E+03    0.45290E+00   -0.22889E+00  5464   0.293E+01    0.271E+00
DAV:  10    -0.127885743254E+03    0.11810E+00   -0.63095E-01  6120   0.115E+01    0.196E+00
DAV:  11    -0.127842567858E+03    0.43175E-01   -0.62902E-01  4696   0.591E+00    0.848E-01
DAV:  12    -0.127844854722E+03   -0.22869E-02   -0.11816E-01  4816   0.177E+00    0.629E-01
DAV:  13    -0.127834886603E+03    0.99681E-02   -0.30099E-02  4848   0.188E+00    0.343E-01
DAV:  14    -0.127831066133E+03    0.38205E-02   -0.19786E-02  4736   0.118E+00    0.192E-01
DAV:  15    -0.127828101755E+03    0.29644E-02   -0.99185E-03  4672   0.989E-01    0.197E-01
DAV:  16    -0.127826241517E+03    0.18602E-02   -0.58999E-03  4632   0.510E-01    0.752E-02
DAV:  17    -0.127826608052E+03   -0.36654E-03   -0.16234E-03  4592   0.393E-01    0.622E-02
DAV:  18    -0.127828072921E+03   -0.14649E-02   -0.69563E-04  4616   0.226E-01    0.546E-02
DAV:  19    -0.127830391215E+03   -0.23183E-02   -0.10160E-03  4592   0.184E-01    0.418E-02
DAV:  20    -0.127831709512E+03   -0.13183E-02   -0.28198E-04  4792   0.278E-01    0.467E-02
DAV:  21    -0.127832415377E+03   -0.70586E-03   -0.50320E-04  5248   0.504E-01    0.197E-02
DAV:  22    -0.127832606299E+03   -0.19092E-03   -0.32118E-04  4680   0.149E-01    0.201E-02
DAV:  23    -0.127832652670E+03   -0.46371E-04   -0.68418E-05  4536   0.520E-02    0.202E-02
DAV:  24    -0.127832689082E+03   -0.36412E-04   -0.15824E-04  4632   0.638E-02    0.108E-02
DAV:  25    -0.127832692784E+03   -0.37022E-05   -0.10685E-05  2848   0.415E-02
   1 F= -.12783269E+03 E0= -.12779415E+03  d E =-.127833E+03
quench:  g(F)=  0.000E+00 g(S)=  0.000E+00 dE (1.order)= 0.000E+00
 bond charge predicted
       N       E                     dE             d eps       ncg     rms          rms(c)
DAV:   1    -0.127833447965E+03   -0.75888E-03   -0.14817E-02  4648   0.246E-01    0.821E-03
DAV:   2    -0.127833484883E+03   -0.36919E-04   -0.10167E-04  3816   0.233E-01    0.226E-02
DAV:   3    -0.127833449937E+03    0.34946E-04   -0.60503E-05  3784   0.185E-01    0.427E-03
DAV:   4    -0.127833453077E+03   -0.31397E-05   -0.25794E-05  3640   0.230E-02
   2 F= -.12783345E+03 E0= -.12779489E+03  d E =-.760292E-03
quench:  g(F)=  0.000E+00 g(S)=  0.000E+00 dE (1.order)= 0.000E+00
 bond charge predicted
       N       E                     dE             d eps       ncg     rms          rms(c)
DAV:   1    -0.127840746479E+03   -0.72965E-02   -0.26741E+00  4496   0.329E+00    0.890E-02
DAV:   2    -0.127841895025E+03   -0.11485E-02   -0.13452E-02  4632   0.467E-01    0.781E-02
DAV:   3    -0.127841884807E+03    0.10218E-04   -0.12249E-03  4776   0.378E-01    0.547E-02
DAV:   4    -0.127841825503E+03    0.59304E-04   -0.18261E-04  4896   0.218E-01    0.313E-02
DAV:   5    -0.127841878206E+03   -0.52703E-04   -0.20519E-04  5624   0.365E-01    0.366E-02
DAV:   6    -0.127841803832E+03    0.74374E-04   -0.15323E-04  5152   0.318E-01    0.693E-03
DAV:   7    -0.127841803889E+03   -0.56643E-07   -0.40959E-05  3744   0.617E-02
   3 F= -.12784180E+03 E0= -.12780331E+03  d E =-.835081E-02
quench:  g(F)=  0.000E+00 g(S)=  0.000E+00 dE (1.order)= 0.000E+00
 bond charge predicted
       N       E                     dE             d eps       ncg     rms          rms(c)
DAV:   1    -0.127845190959E+03   -0.33871E-02   -0.13276E+01  4464   0.694E+00    0.172E-01
DAV:   2    -0.127851879059E+03   -0.66881E-02   -0.73943E-02  4680   0.916E-01    0.152E-01
DAV:   3    -0.127851778717E+03    0.10034E-03   -0.40584E-03  4848   0.647E-01    0.106E-01
DAV:   4    -0.127851597691E+03    0.18103E-03   -0.62163E-04  4760   0.396E-01    0.761E-02
DAV:   5    -0.127851843217E+03   -0.24553E-03   -0.94176E-04  5952   0.771E-01    0.821E-02
DAV:   6    -0.127851443868E+03    0.39935E-03   -0.73088E-04  7168   0.664E-01    0.177E-02
DAV:   7    -0.127851456366E+03   -0.12497E-04   -0.23383E-04  5096   0.970E-02    0.117E-02
DAV:   8    -0.127851453898E+03    0.24674E-05   -0.33343E-05  3864   0.519E-02
   4 F= -.12785145E+03 E0= -.12781305E+03  d E =-.965001E-02
quench:  g(F)=  0.000E+00 g(S)=  0.000E+00 dE (1.order)= 0.000E+00
 bond charge predicted
       N       E                     dE             d eps       ncg     rms          rms(c)
DAV:   1    -0.127844510145E+03    0.69462E-02   -0.18265E+01  4464   0.734E+00    0.171E-01
DAV:   2    -0.127855536480E+03   -0.11026E-01   -0.11684E-01  4680   0.912E-01    0.152E-01
DAV:   3    -0.127855421152E+03    0.11533E-03   -0.41927E-03  4832   0.504E-01    0.109E-01
DAV:   4    -0.127855263553E+03    0.15760E-03   -0.52044E-04  4928   0.338E-01    0.917E-02
DAV:   5    -0.127855074003E+03    0.18955E-03   -0.69189E-04  7080   0.290E-01    0.401E-02
DAV:   6    -0.127855105568E+03   -0.31566E-04   -0.43840E-04  5184   0.547E-01    0.408E-02
DAV:   7    -0.127855014112E+03    0.91457E-04   -0.16532E-04  5088   0.313E-01    0.125E-02
DAV:   8    -0.127855020536E+03   -0.64242E-05   -0.10235E-04  4648   0.536E-02    0.105E-02
DAV:   9    -0.127855018405E+03    0.21306E-05   -0.17431E-05  2952   0.332E-02
   5 F= -.12785502E+03 E0= -.12781663E+03  d E =-.356451E-02
quench:  g(F)=  0.000E+00 g(S)=  0.000E+00 dE (1.order)= 0.000E+00
 bond charge predicted
       N       E                     dE             d eps       ncg     rms          rms(c)
DAV:   1    -0.127826128030E+03    0.28893E-01   -0.45056E+01  4464   0.107E+01    0.251E-01
DAV:   2    -0.127856169644E+03   -0.30042E-01   -0.31466E-01  4712   0.129E+00    0.230E-01
DAV:   3    -0.127855670602E+03    0.49904E-03   -0.86913E-03  4560   0.511E-01    0.163E-01
DAV:   4    -0.127855289812E+03    0.38079E-03   -0.89948E-04  4840   0.409E-01    0.138E-01
DAV:   5    -0.127855021189E+03    0.26862E-03   -0.93574E-04  5704   0.712E-01    0.105E-01
DAV:   6    -0.127854645089E+03    0.37610E-03   -0.14330E-03  7552   0.747E-01    0.430E-02
DAV:   7    -0.127854593248E+03    0.51841E-04   -0.67383E-04  6696   0.322E-01    0.199E-02
DAV:   8    -0.127854600544E+03   -0.72960E-05   -0.20708E-04  4664   0.732E-02    0.152E-02
DAV:   9    -0.127854595173E+03    0.53708E-05   -0.32064E-05  3640   0.421E-02
   6 F= -.12785460E+03 E0= -.12781624E+03  d E =0.423232E-03
quench:  g(F)=  0.000E+00 g(S)=  0.000E+00 dE (1.order)= 0.000E+00
 bond charge predicted
       N       E                     dE             d eps       ncg     rms          rms(c)
DAV:   1    -0.127739927685E+03    0.11467E+00   -0.16061E+02  4464   0.218E+01    0.554E-01
DAV:   2    -0.127850891548E+03   -0.11096E+00   -0.11899E+00  5088   0.301E+00    0.523E-01
DAV:   3    -0.127848336594E+03    0.25550E-02   -0.44579E-02  4752   0.200E+00    0.343E-01
DAV:   4    -0.127847242407E+03    0.10942E-02   -0.69694E-03  4848   0.148E+00    0.302E-01
DAV:   5    -0.127845865338E+03    0.13771E-02   -0.46073E-03  5544   0.160E+00    0.236E-01
DAV:   6    -0.127843648519E+03    0.22168E-02   -0.81845E-03  6984   0.112E+00    0.544E-02
DAV:   7    -0.127843819034E+03   -0.17051E-03   -0.27370E-03  5080   0.362E-01    0.410E-02
DAV:   8    -0.127843813311E+03    0.57230E-05   -0.49311E-04  4664   0.196E-01    0.297E-02
DAV:   9    -0.127843796303E+03    0.17008E-04   -0.12553E-04  4832   0.113E-01    0.132E-02
DAV:  10    -0.127843802527E+03   -0.62248E-05   -0.71043E-05  4552   0.657E-02
   7 F= -.12784380E+03 E0= -.12780552E+03  d E =0.107926E-01
quench:  g(F)=  0.000E+00 g(S)=  0.000E+00 dE (1.order)= 0.000E+00
 bond charge predicted
       N       E                     dE             d eps       ncg     rms          rms(c)
DAV:   1    -0.127752984011E+03    0.90812E-01   -0.13901E+02  4464   0.219E+01    0.561E-01
DAV:   2    -0.127833312442E+03   -0.80328E-01   -0.88570E-01  5568   0.298E+00    0.526E-01
DAV:   3    -0.127830726680E+03    0.25858E-02   -0.40285E-02  4704   0.250E+00    0.348E-01
DAV:   4    -0.127829488365E+03    0.12383E-02   -0.91270E-03  5072   0.209E+00    0.304E-01
DAV:   5    -0.127827461079E+03    0.20273E-02   -0.72540E-03  6176   0.195E+00    0.213E-01
DAV:   6    -0.127825745120E+03    0.17160E-02   -0.99901E-03  6776   0.109E+00    0.432E-02
DAV:   7    -0.127825926767E+03   -0.18165E-03   -0.23214E-03  4608   0.261E-01    0.440E-02
DAV:   8    -0.127825908826E+03    0.17941E-04   -0.41575E-04  4656   0.183E-01    0.277E-02
DAV:   9    -0.127825893597E+03    0.15229E-04   -0.12097E-04  4600   0.758E-02    0.128E-02
DAV:  10    -0.127825896161E+03   -0.25636E-05   -0.29753E-05  3264   0.641E-02
   8 F= -.12782590E+03 E0= -.12778750E+03  d E =0.179064E-01
quench:  g(F)=  0.000E+00 g(S)=  0.000E+00 dE (1.order)= 0.000E+00
 bond charge predicted
       N       E                     dE             d eps       ncg     rms          rms(c)
DAV:   1    -0.127785583515E+03    0.40310E-01   -0.77633E+01  4464   0.187E+01    0.507E-01
DAV:   2    -0.127807916245E+03   -0.22333E-01   -0.29720E-01  4816   0.230E+00    0.441E-01
DAV:   3    -0.127806280365E+03    0.16359E-02   -0.28145E-02  4800   0.246E+00    0.310E-01
DAV:   4    -0.127805950816E+03    0.32955E-03   -0.10698E-02  5392   0.262E+00    0.246E-01
DAV:   5    -0.127803157812E+03    0.27930E-02   -0.96269E-03  7120   0.238E+00    0.130E-01
DAV:   6    -0.127802582723E+03    0.57509E-03   -0.51807E-03  7088   0.898E-01    0.404E-02
DAV:   7    -0.127802659253E+03   -0.76530E-04   -0.14585E-03  4760   0.190E-01    0.329E-02
DAV:   8    -0.127802653134E+03    0.61192E-05   -0.26881E-04  4552   0.129E-01    0.209E-02
DAV:   9    -0.127802646278E+03    0.68558E-05   -0.57945E-05  4056   0.583E-02
   9 F= -.12780265E+03 E0= -.12776420E+03  d E =0.232499E-01
quench:  g(F)=  0.000E+00 g(S)=  0.000E+00 dE (1.order)= 0.000E+00
 bond charge predicted
       N       E                     dE             d eps       ncg     rms          rms(c)
DAV:   1    -0.127795390295E+03    0.72628E-02   -0.22574E+01  4464   0.103E+01    0.287E-01
DAV:   2    -0.127800110837E+03   -0.47205E-02   -0.70771E-02  4584   0.122E+00    0.242E-01
DAV:   3    -0.127799470513E+03    0.64032E-03   -0.81132E-03  4776   0.114E+00    0.172E-01
DAV:   4    -0.127798537878E+03    0.93264E-03   -0.24690E-03  6976   0.667E-01    0.438E-02
DAV:   5    -0.127798815500E+03   -0.27762E-03   -0.12070E-03  6440   0.793E-01    0.766E-02
DAV:   6    -0.127798474598E+03    0.34090E-03   -0.60105E-04  5016   0.626E-01    0.190E-02
DAV:   7    -0.127798483017E+03   -0.84186E-05   -0.20584E-04  4792   0.824E-02    0.130E-02
DAV:   8    -0.127798484371E+03   -0.13549E-05   -0.55576E-05  4472   0.630E-02
  10 F= -.12779848E+03 E0= -.12776011E+03  d E =0.416191E-02
quench:  g(F)=  0.000E+00 g(S)=  0.000E+00 dE (1.order)= 0.000E+00
 bond charge predicted
       N       E                     dE             d eps       ncg     rms          rms(c)
DAV:   1    -0.127791996919E+03    0.64861E-02   -0.10650E+01  4464   0.691E+00    0.193E-01
DAV:   2    -0.127795557345E+03   -0.35604E-02   -0.44785E-02  4512   0.902E-01    0.163E-01
DAV:   3    -0.127795384486E+03    0.17286E-03   -0.45567E-03  4704   0.791E-01    0.119E-01
DAV:   4    -0.127794998126E+03    0.38636E-03   -0.84107E-04  5216   0.489E-01    0.455E-02
DAV:   5    -0.127795315054E+03   -0.31693E-03   -0.10515E-03  6288   0.804E-01    0.751E-02
DAV:   6    -0.127794934451E+03    0.38060E-03   -0.60600E-04  7080   0.620E-01    0.851E-03
DAV:   7    -0.127794949883E+03   -0.15432E-04   -0.18625E-04  4736   0.604E-02    0.108E-02
DAV:   8    -0.127794949529E+03    0.35398E-06   -0.20023E-05  2760   0.337E-02
  11 F= -.12779495E+03 E0= -.12775655E+03  d E =0.353484E-02
quench:  g(F)=  0.000E+00 g(S)=  0.000E+00 dE (1.order)= 0.000E+00
 bond charge predicted
       N       E                     dE             d eps       ncg     rms          rms(c)
DAV:   1    -0.127794473296E+03    0.47659E-03   -0.71370E+00  4464   0.539E+00    0.140E-01
DAV:   2    -0.127797667650E+03   -0.31944E-02   -0.36747E-02  4512   0.733E-01    0.124E-01
DAV:   3    -0.127797596485E+03    0.71165E-04   -0.25821E-03  4576   0.561E-01    0.846E-02
DAV:   4    -0.127797481598E+03    0.11489E-03   -0.53475E-04  5104   0.493E-01    0.611E-02
DAV:   5    -0.127797575083E+03   -0.93485E-04   -0.72106E-04  5464   0.718E-01    0.632E-02
DAV:   6    -0.127797351870E+03    0.22321E-03   -0.51216E-04  8056   0.486E-01    0.126E-02
DAV:   7    -0.127797359789E+03   -0.79196E-05   -0.14856E-04  5024   0.767E-02    0.835E-03
DAV:   8    -0.127797359414E+03    0.37505E-06   -0.26277E-05  2784   0.363E-02
  12 F= -.12779736E+03 E0= -.12775888E+03  d E =-.240989E-02
quench:  g(F)=  0.000E+00 g(S)=  0.000E+00 dE (1.order)= 0.000E+00
 bond charge predicted
       N       E                     dE             d eps       ncg     rms          rms(c)
DAV:   1    -0.127783069012E+03    0.14291E-01   -0.29109E+01  4464   0.951E+00    0.224E-01
DAV:   2    -0.127799773768E+03   -0.16705E-01   -0.17834E-01  4728   0.110E+00    0.197E-01
DAV:   3    -0.127799315374E+03    0.45839E-03   -0.53201E-03  4720   0.671E-01    0.145E-01
DAV:   4    -0.127799119378E+03    0.19600E-03   -0.11808E-03  5032   0.739E-01    0.127E-01
DAV:   5    -0.127798939117E+03    0.18026E-03   -0.15468E-03  6280   0.961E-01    0.100E-01
DAV:   6    -0.127798451802E+03    0.48732E-03   -0.16040E-03  7616   0.650E-01    0.222E-02
DAV:   7    -0.127798487470E+03   -0.35668E-04   -0.46857E-04  4936   0.123E-01    0.162E-02
DAV:   8    -0.127798482561E+03    0.49085E-05   -0.52023E-05  4528   0.484E-02
  13 F= -.12779848E+03 E0= -.12775992E+03  d E =-.112315E-02
quench:  g(F)=  0.000E+00 g(S)=  0.000E+00 dE (1.order)= 0.000E+00
 bond charge predicted
       N       E                     dE             d eps       ncg     rms          rms(c)
DAV:   1    -0.127786189583E+03    0.12298E-01   -0.30409E+01  4464   0.120E+01    0.334E-01
DAV:   2    -0.127789810271E+03   -0.36207E-02   -0.70953E-02  4528   0.127E+00    0.275E-01
DAV:   3    -0.127788934098E+03    0.87617E-03   -0.10297E-02  4768   0.153E+00    0.210E-01
DAV:   4    -0.127789153683E+03   -0.21959E-03   -0.63907E-03  7912   0.184E+00    0.148E-01
DAV:   5    -0.127787500247E+03    0.16534E-02   -0.43638E-03  7672   0.158E+00    0.691E-02
DAV:   6    -0.127787409130E+03    0.91118E-04   -0.10156E-03  6304   0.397E-01    0.307E-02
DAV:   7    -0.127787417577E+03   -0.84471E-05   -0.37559E-04  4768   0.108E-01    0.148E-02
DAV:   8    -0.127787417080E+03    0.49677E-06   -0.58689E-05  4408   0.644E-02
  14 F= -.12778742E+03 E0= -.12774874E+03  d E =0.110655E-01
quench:  g(F)=  0.000E+00 g(S)=  0.000E+00 dE (1.order)= 0.000E+00
 bond charge predicted
       N       E                     dE             d eps       ncg     rms          rms(c)
DAV:   1    -0.127766091125E+03    0.21326E-01   -0.89391E+01  4464   0.208E+01    0.588E-01
DAV:   2    -0.127775997286E+03   -0.99062E-02   -0.20659E-01  4560   0.258E+00    0.517E-01
DAV:   3    -0.127773638830E+03    0.23585E-02   -0.34673E-02  4832   0.306E+00    0.359E-01
DAV:   4    -0.127776708086E+03   -0.30693E-02   -0.23285E-02  7024   0.381E+00    0.319E-01
DAV:   5    -0.127768398722E+03    0.83094E-02   -0.17478E-02  8488   0.291E+00    0.123E-01
DAV:   6    -0.127768495908E+03   -0.97186E-04   -0.49354E-03  5072   0.492E-01    0.834E-02
DAV:   7    -0.127768435534E+03    0.60374E-04   -0.83811E-04  4592   0.178E-01    0.501E-02
DAV:   8    -0.127768380121E+03    0.55414E-04   -0.15924E-04  4688   0.622E-02    0.311E-02
DAV:   9    -0.127768363943E+03    0.16178E-04   -0.53187E-05  4520   0.100E-01    0.197E-02
DAV:  10    -0.127768354470E+03    0.94729E-05   -0.17902E-05  2968   0.747E-02
  15 F= -.12776835E+03 E0= -.12772951E+03  d E =0.190626E-01
quench:  g(F)=  0.000E+00 g(S)=  0.000E+00 dE (1.order)= 0.000E+00
 bond charge predicted
       N       E                     dE             d eps       ncg     rms          rms(c)
DAV:   1    -0.127772455994E+03   -0.40921E-02   -0.43327E+00  4464   0.455E+00    0.126E-01
DAV:   2    -0.127772925721E+03   -0.46973E-03   -0.94721E-03  4496   0.464E-01    0.992E-02
DAV:   3    -0.127772804910E+03    0.12081E-03   -0.15957E-03  4600   0.527E-01    0.839E-02
DAV:   4    -0.127772640860E+03    0.16405E-03   -0.68740E-04  6656   0.331E-01    0.371E-02
DAV:   5    -0.127772635711E+03    0.51488E-05   -0.17431E-04  5120   0.290E-01    0.232E-02
DAV:   6    -0.127772609764E+03    0.25948E-04   -0.49793E-05  3064   0.160E-01    0.145E-02
DAV:   7    -0.127772609612E+03    0.15193E-06   -0.65695E-05  4472   0.550E-02
  16 F= -.12777261E+03 E0= -.12773384E+03  d E =-.425514E-02
quench:  g(F)=  0.000E+00 g(S)=  0.000E+00 dE (1.order)= 0.000E+00
 bond charge predicted
       N       E                     dE             d eps       ncg     rms          rms(c)
DAV:   1    -0.127762528908E+03    0.10081E-01   -0.15931E+01  4488   0.674E+00    0.153E-01
DAV:   2    -0.127772132758E+03   -0.96039E-02   -0.10072E-01  4736   0.770E-01    0.137E-01
DAV:   3    -0.127771905493E+03    0.22727E-03   -0.26022E-03  4608   0.362E-01    0.102E-01
DAV:   4    -0.127771746460E+03    0.15903E-03   -0.39021E-04  5200   0.317E-01    0.855E-02
DAV:   5    -0.127771677233E+03    0.69228E-04   -0.74660E-04  6816   0.569E-01    0.642E-02
DAV:   6    -0.127771476256E+03    0.20098E-03   -0.65103E-04  7296   0.573E-01    0.181E-02
DAV:   7    -0.127771475321E+03    0.93412E-06   -0.21290E-04  6160   0.147E-01    0.122E-02
DAV:   8    -0.127771476518E+03   -0.11971E-05   -0.62981E-05  4640   0.416E-02
  17 F= -.12777148E+03 E0= -.12773265E+03  d E =0.113309E-02
quench:  g(F)=  0.000E+00 g(S)=  0.000E+00 dE (1.order)= 0.000E+00
 bond charge predicted
       N       E                     dE             d eps       ncg     rms          rms(c)
DAV:   1    -0.127653130637E+03    0.11834E+00   -0.16345E+02  4464   0.209E+01    0.534E-01
DAV:   2    -0.127776362097E+03   -0.12323E+00   -0.13061E+00  4720   0.287E+00    0.503E-01
DAV:   3    -0.127774184291E+03    0.21778E-02   -0.43381E-02  4736   0.162E+00    0.333E-01
DAV:   4    -0.127773241203E+03    0.94309E-03   -0.61077E-03  4976   0.135E+00    0.299E-01
DAV:   5    -0.127771693320E+03    0.15479E-02   -0.35315E-03  5568   0.131E+00    0.233E-01
DAV:   6    -0.127769840594E+03    0.18527E-02   -0.61820E-03  6704   0.959E-01    0.815E-02
DAV:   7    -0.127769802255E+03    0.38338E-04   -0.27708E-03  5904   0.418E-01    0.348E-02
DAV:   8    -0.127769822794E+03   -0.20539E-04   -0.55124E-04  4616   0.167E-01    0.294E-02
DAV:   9    -0.127769813349E+03    0.94452E-05   -0.14624E-04  4768   0.122E-01    0.142E-02
DAV:  10    -0.127769817060E+03   -0.37112E-05   -0.44940E-05  3920   0.451E-02
  18 F= -.12776982E+03 E0= -.12773078E+03  d E =0.165946E-02
quench:  g(F)=  0.000E+00 g(S)=  0.000E+00 dE (1.order)= 0.000E+00
 bond charge predicted
       N       E                     dE             d eps       ncg     rms          rms(c)
DAV:   1    -0.127461785452E+03    0.30803E+00   -0.39708E+02  4464   0.351E+01    0.942E-01
DAV:   2    -0.127786351533E+03   -0.32457E+00   -0.35026E+00  4784   0.516E+00    0.863E-01
DAV:   3    -0.127781480857E+03    0.48707E-02   -0.13721E-01  4832   0.353E+00    0.555E-01
DAV:   4    -0.127779149208E+03    0.23316E-02   -0.23702E-02  4992   0.299E+00    0.495E-01
DAV:   5    -0.127773640672E+03    0.55085E-02   -0.12242E-02  5472   0.229E+00    0.356E-01
DAV:   6    -0.127769722079E+03    0.39186E-02   -0.20140E-02  6408   0.146E+00    0.108E-01
DAV:   7    -0.127769977921E+03   -0.25584E-03   -0.62415E-03  4704   0.599E-01    0.581E-02
DAV:   8    -0.127769980448E+03   -0.25278E-05   -0.11196E-03  4616   0.244E-01    0.454E-02
DAV:   9    -0.127769958721E+03    0.21728E-04   -0.50192E-04  4728   0.229E-01    0.272E-02
DAV:  10    -0.127769958949E+03   -0.22831E-06   -0.12350E-04  5096   0.121E-01    0.160E-02
DAV:  11    -0.127769966226E+03   -0.72768E-05   -0.62224E-05  4648   0.816E-02
  19 F= -.12776997E+03 E0= -.12773109E+03  d E =-.149165E-03
quench:  g(F)=  0.000E+00 g(S)=  0.000E+00 dE (1.order)= 0.000E+00
 bond charge predicted
       N       E                     dE             d eps       ncg     rms          rms(c)
DAV:   1    -0.127375602263E+03    0.39436E+00   -0.64430E+02  4464   0.506E+01    0.142E+00
DAV:   2    -0.127829734296E+03   -0.45413E+00   -0.51334E+00  5720   0.879E+00    0.140E+00
DAV:   3    -0.127814344265E+03    0.15390E-01   -0.29961E-01  4824   0.755E+00    0.808E-01
DAV:   4    -0.127807714001E+03    0.66303E-02   -0.66411E-02  5168   0.565E+00    0.721E-01
DAV:   5    -0.127794250503E+03    0.13463E-01   -0.41424E-02  5304   0.443E+00    0.484E-01
DAV:   6    -0.127788464043E+03    0.57865E-02   -0.63725E-02  6208   0.213E+00    0.145E-01
DAV:   7    -0.127788865560E+03   -0.40152E-03   -0.11897E-02  4784   0.753E-01    0.969E-02
DAV:   8    -0.127788897345E+03   -0.31785E-04   -0.43044E-03  4624   0.532E-01    0.700E-02
DAV:   9    -0.127788850852E+03    0.46493E-04   -0.57398E-04  4672   0.259E-01    0.390E-02
DAV:  10    -0.127788840824E+03    0.10028E-04   -0.23833E-04  4704   0.230E-01    0.162E-02
DAV:  11    -0.127788859415E+03   -0.18591E-04   -0.12566E-04  4552   0.636E-02    0.137E-02
DAV:  12    -0.127788860713E+03   -0.12984E-05   -0.28471E-05  3264   0.642E-02
  20 F= -.12778886E+03 E0= -.12775006E+03  d E =-.188945E-01
quench:  g(F)=  0.000E+00 g(S)=  0.000E+00 dE (1.order)= 0.000E+00
 bond charge predicted
       N       E                     dE             d eps       ncg     rms          rms(c)
DAV:   1    -0.127754507711E+03    0.34352E-01   -0.79701E+01  4464   0.195E+01    0.579E-01
DAV:   2    -0.127784664154E+03   -0.30156E-01   -0.37841E-01  4760   0.337E+00    0.550E-01
DAV:   3    -0.127784391972E+03    0.27218E-03   -0.50050E-02  4792   0.342E+00    0.347E-01
DAV:   4    -0.127786390866E+03   -0.19989E-02   -0.17957E-02  5472   0.353E+00    0.298E-01
DAV:   5    -0.127780064775E+03    0.63261E-02   -0.10839E-02  6088   0.265E+00    0.963E-02
DAV:   6    -0.127780336905E+03   -0.27213E-03   -0.58281E-03  5312   0.588E-01    0.667E-02
DAV:   7    -0.127780352847E+03   -0.15942E-04   -0.12465E-03  4864   0.264E-01    0.373E-02
DAV:   8    -0.127780349907E+03    0.29400E-05   -0.33690E-04  4624   0.124E-01    0.289E-02
DAV:   9    -0.127780334522E+03    0.15386E-04   -0.70434E-05  4688   0.840E-02    0.183E-02
DAV:  10    -0.127780325686E+03    0.88359E-05   -0.32309E-05  3680   0.909E-02
  21 F= -.12778033E+03 E0= -.12774129E+03  d E =0.853503E-02
quench:  g(F)=  0.000E+00 g(S)=  0.000E+00 dE (1.order)= 0.000E+00
 bond charge predicted
       N       E                     dE             d eps       ncg     rms          rms(c)
DAV:   1    -0.127801834222E+03   -0.21500E-01   -0.13297E+01  4464   0.770E+00    0.239E-01
DAV:   2    -0.127808261951E+03   -0.64277E-02   -0.78054E-02  4576   0.143E+00    0.222E-01
DAV:   3    -0.127808266234E+03   -0.42831E-05   -0.10541E-02  4560   0.116E+00    0.131E-01
DAV:   4    -0.127808040116E+03    0.22612E-03   -0.12423E-03  4816   0.638E-01    0.738E-02
DAV:   5    -0.127808315807E+03   -0.27569E-03   -0.16812E-03  4880   0.107E+00    0.926E-02
DAV:   6    -0.127807830320E+03    0.48549E-03   -0.72301E-04  5736   0.674E-01    0.936E-03
DAV:   7    -0.127807862654E+03   -0.32333E-04   -0.36980E-04  4776   0.806E-02    0.120E-02
DAV:   8    -0.127807863382E+03   -0.72813E-06   -0.35723E-05  3880   0.362E-02
  22 F= -.12780786E+03 E0= -.12776917E+03  d E =-.275377E-01
quench:  g(F)=  0.000E+00 g(S)=  0.000E+00 dE (1.order)= 0.000E+00
 bond charge predicted
       N       E                     dE             d eps       ncg     rms          rms(c)
DAV:   1    -0.127812302516E+03   -0.44399E-02   -0.41982E+00  4464   0.439E+00    0.125E-01
DAV:   2    -0.127814030213E+03   -0.17277E-02   -0.20877E-02  4552   0.659E-01    0.109E-01
DAV:   3    -0.127814019566E+03    0.10647E-04   -0.22007E-03  4728   0.543E-01    0.740E-02
DAV:   4    -0.127813914335E+03    0.10523E-03   -0.31062E-04  4848   0.383E-01    0.357E-02
DAV:   5    -0.127814000747E+03   -0.86412E-04   -0.44756E-04  5096   0.577E-01    0.469E-02
DAV:   6    -0.127813858624E+03    0.14212E-03   -0.21859E-04  5688   0.378E-01    0.417E-03
DAV:   7    -0.127813867412E+03   -0.87880E-05   -0.98731E-05  4776   0.363E-02
  23 F= -.12781387E+03 E0= -.12777528E+03  d E =-.600403E-02
quench:  g(F)=  0.000E+00 g(S)=  0.000E+00 dE (1.order)= 0.000E+00
 bond charge predicted
       N       E                     dE             d eps       ncg     rms          rms(c)
DAV:   1    -0.127816460464E+03   -0.26018E-02   -0.10481E+00  4464   0.213E+00    0.539E-02
DAV:   2    -0.127816801976E+03   -0.34151E-03   -0.41894E-03  4696   0.239E-01    0.444E-02
DAV:   3    -0.127816782355E+03    0.19621E-04   -0.28432E-04  4856   0.191E-01    0.325E-02
DAV:   4    -0.127816752346E+03    0.30008E-04   -0.62837E-05  5040   0.137E-01    0.157E-02
DAV:   5    -0.127816747900E+03    0.44461E-05   -0.40361E-05  3736   0.561E-02
  24 F= -.12781675E+03 E0= -.12777813E+03  d E =-.288049E-02
quench:  g(F)=  0.000E+00 g(S)=  0.000E+00 dE (1.order)= 0.000E+00
 bond charge predicted
       N       E                     dE             d eps       ncg     rms          rms(c)
DAV:   1    -0.127822092221E+03   -0.53399E-02   -0.25307E+01  4464   0.103E+01    0.262E-01
DAV:   2    -0.127830912683E+03   -0.88205E-02   -0.10766E-01  4656   0.109E+00    0.214E-01
DAV:   3    -0.127830249717E+03    0.66297E-03   -0.50245E-03  4864   0.874E-01    0.153E-01
DAV:   4    -0.127830091347E+03    0.15837E-03   -0.20467E-03  5120   0.116E+00    0.121E-01
DAV:   5    -0.127829873949E+03    0.21740E-03   -0.27775E-03  7552   0.136E+00    0.922E-02
DAV:   6    -0.127829362013E+03    0.51194E-03   -0.14019E-03  8024   0.708E-01    0.165E-02
DAV:   7    -0.127829389471E+03   -0.27458E-04   -0.41025E-04  4744   0.761E-02    0.165E-02
DAV:   8    -0.127829387152E+03    0.23187E-05   -0.36133E-05  3704   0.386E-02
  25 F= -.12782939E+03 E0= -.12779069E+03  d E =-.126393E-01
quench:  g(F)=  0.000E+00 g(S)=  0.000E+00 dE (1.order)= 0.000E+00
 bond charge predicted
       N       E                     dE             d eps       ncg     rms          rms(c)
DAV:   1    -0.127673845510E+03    0.15554E+00   -0.30905E+02  4464   0.350E+01    0.970E-01
DAV:   2    -0.127861749954E+03   -0.18790E+00   -0.21184E+00  5584   0.623E+00    0.976E-01
DAV:   3    -0.127855430203E+03    0.63198E-02   -0.14529E-01  4824   0.564E+00    0.574E-01
DAV:   4    -0.127851462309E+03    0.39679E-02   -0.32040E-02  5168   0.417E+00    0.502E-01
DAV:   5    -0.127844337482E+03    0.71248E-02   -0.21219E-02  5432   0.320E+00    0.318E-01
DAV:   6    -0.127842350722E+03    0.19868E-02   -0.30115E-02  6216   0.151E+00    0.114E-01
DAV:   7    -0.127842427468E+03   -0.76745E-04   -0.55418E-03  4672   0.615E-01    0.744E-02
DAV:   8    -0.127842439800E+03   -0.12332E-04   -0.26366E-03  4608   0.425E-01    0.525E-02
DAV:   9    -0.127842415637E+03    0.24162E-04   -0.40092E-04  4656   0.204E-01    0.327E-02
DAV:  10    -0.127842405403E+03    0.10235E-04   -0.14742E-04  4640   0.171E-01    0.124E-02
DAV:  11    -0.127842413513E+03   -0.81098E-05   -0.64927E-05  4664   0.526E-02
  26 F= -.12784241E+03 E0= -.12780396E+03  d E =-.130264E-01
quench:  g(F)=  0.000E+00 g(S)=  0.000E+00 dE (1.order)= 0.000E+00
 bond charge predicted
       N       E                     dE             d eps       ncg     rms          rms(c)
DAV:   1    -0.127856757482E+03   -0.14352E-01   -0.36908E+01  4464   0.133E+01    0.387E-01
DAV:   2    -0.127872620523E+03   -0.15863E-01   -0.18888E-01  4640   0.229E+00    0.384E-01
DAV:   3    -0.127872203519E+03    0.41700E-03   -0.21844E-02  4784   0.177E+00    0.218E-01
DAV:   4    -0.127872511750E+03   -0.30823E-03   -0.41046E-03  5800   0.157E+00    0.148E-01
DAV:   5    -0.127871130605E+03    0.13811E-02   -0.40824E-03  5344   0.179E+00    0.904E-02
DAV:   6    -0.127870835407E+03    0.29520E-03   -0.12127E-03  6392   0.621E-01    0.325E-02
DAV:   7    -0.127870865664E+03   -0.30257E-04   -0.57118E-04  4752   0.136E-01    0.172E-02
DAV:   8    -0.127870870982E+03   -0.53181E-05   -0.12934E-04  4688   0.829E-02    0.140E-02
DAV:   9    -0.127870867257E+03    0.37253E-05   -0.16852E-05  2752   0.423E-02
  27 F= -.12787087E+03 E0= -.12783241E+03  d E =-.284537E-01
quench:  g(F)=  0.000E+00 g(S)=  0.000E+00 dE (1.order)= 0.000E+00
 bond charge predicted
       N       E                     dE             d eps       ncg     rms          rms(c)
DAV:   1    -0.127871603644E+03   -0.73266E-03   -0.10569E+00  4488   0.197E+00    0.504E-02
DAV:   2    -0.127872138922E+03   -0.53528E-03   -0.58537E-03  4680   0.258E-01    0.418E-02
DAV:   3    -0.127872134477E+03    0.44459E-05   -0.35320E-04  4680   0.214E-01    0.333E-02
DAV:   4    -0.127872121290E+03    0.13186E-04   -0.74952E-05  4832   0.200E-01    0.238E-02
DAV:   5    -0.127872119314E+03    0.19760E-05   -0.70272E-05  3592   0.229E-01
  28 F= -.12787212E+03 E0= -.12783358E+03  d E =-.125206E-02
quench:  g(F)=  0.000E+00 g(S)=  0.000E+00 dE (1.order)= 0.000E+00
 bond charge predicted
       N       E                     dE             d eps       ncg     rms          rms(c)
DAV:   1    -0.127870879042E+03    0.12422E-02   -0.47676E+00  4464   0.375E+00    0.864E-02
DAV:   2    -0.127873614056E+03   -0.27350E-02   -0.28748E-02  4752   0.450E-01    0.732E-02
DAV:   3    -0.127873557779E+03    0.56277E-04   -0.84048E-04  4552   0.274E-01    0.559E-02
DAV:   4    -0.127873525525E+03    0.32253E-04   -0.14900E-04  4784   0.258E-01    0.470E-02
DAV:   5    -0.127873509363E+03    0.16163E-04   -0.18320E-04  5536   0.344E-01    0.387E-02
DAV:   6    -0.127873435036E+03    0.74327E-04   -0.22957E-04  6472   0.244E-01    0.891E-03
DAV:   7    -0.127873440418E+03   -0.53820E-05   -0.67498E-05  4528   0.497E-02
  29 F= -.12787344E+03 E0= -.12783487E+03  d E =-.132110E-02
quench:  g(F)=  0.000E+00 g(S)=  0.000E+00 dE (1.order)= 0.000E+00
 bond charge predicted
       N       E                     dE             d eps       ncg     rms          rms(c)
DAV:   1    -0.127865926432E+03    0.75086E-02   -0.15475E+01  4464   0.628E+00    0.143E-01
DAV:   2    -0.127875626300E+03   -0.96999E-02   -0.10097E-01  4688   0.750E-01    0.129E-01
DAV:   3    -0.127875455560E+03    0.17074E-03   -0.28280E-03  4704   0.380E-01    0.958E-02
DAV:   4    -0.127875349903E+03    0.10566E-03   -0.29052E-04  4896   0.239E-01    0.813E-02
DAV:   5    -0.127875288638E+03    0.61265E-04   -0.41046E-04  6048   0.473E-01    0.666E-02
DAV:   6    -0.127875089354E+03    0.19928E-03   -0.53988E-04  7688   0.482E-01    0.184E-02
DAV:   7    -0.127875090653E+03   -0.12987E-05   -0.23619E-04  5928   0.139E-01    0.119E-02
DAV:   8    -0.127875091837E+03   -0.11843E-05   -0.58506E-05  4480   0.462E-02
  30 F= -.12787509E+03 E0= -.12783653E+03  d E =-.165142E-02
quench:  g(F)=  0.000E+00 g(S)=  0.000E+00 dE (1.order)= 0.000E+00
 bond charge predicted
       N       E                     dE             d eps       ncg     rms          rms(c)
DAV:   1    -0.127597837083E+03    0.27725E+00   -0.34201E+02  4464   0.311E+01    0.855E-01
DAV:   2    -0.127882383358E+03   -0.28455E+00   -0.30418E+00  5152   0.507E+00    0.809E-01
DAV:   3    -0.127876908429E+03    0.54749E-02   -0.12224E-01  4760   0.323E+00    0.495E-01
DAV:   4    -0.127874755994E+03    0.21524E-02   -0.15353E-02  4872   0.179E+00    0.427E-01
DAV:   5    -0.127872701200E+03    0.20548E-02   -0.65846E-03  5008   0.176E+00    0.359E-01
DAV:   6    -0.127868223220E+03    0.44780E-02   -0.12178E-02  6824   0.138E+00    0.141E-01
DAV:   7    -0.127867934091E+03    0.28913E-03   -0.67014E-03  6016   0.665E-01    0.533E-02
DAV:   8    -0.127868002386E+03   -0.68295E-04   -0.16771E-03  4608   0.352E-01    0.416E-02
DAV:   9    -0.127867992855E+03    0.95305E-05   -0.32213E-04  4720   0.156E-01    0.279E-02
DAV:  10    -0.127867989513E+03    0.33423E-05   -0.22248E-04  4792   0.114E-01    0.101E-02
DAV:  11    -0.127867996586E+03   -0.70732E-05   -0.49421E-05  4056   0.452E-02
  31 F= -.12786800E+03 E0= -.12782965E+03  d E =0.709525E-02
quench:  g(F)=  0.000E+00 g(S)=  0.000E+00 dE (1.order)= 0.000E+00
 bond charge predicted
       N       E                     dE             d eps       ncg     rms          rms(c)
DAV:   1    -0.127686727751E+03    0.18126E+00   -0.19062E+02  4464   0.288E+01    0.868E-01
DAV:   2    -0.127780628633E+03   -0.93901E-01   -0.11549E+00  5008   0.488E+00    0.754E-01
DAV:   3    -0.127782323489E+03   -0.16949E-02   -0.12564E-01  4744   0.539E+00    0.521E-01
DAV:   4    -0.127778626276E+03    0.36972E-02   -0.34395E-02  4952   0.442E+00    0.397E-01
DAV:   5    -0.127773192557E+03    0.54337E-02   -0.16349E-02  5368   0.290E+00    0.238E-01
DAV:   6    -0.127772376283E+03    0.81627E-03   -0.16720E-02  5984   0.114E+00    0.773E-02
DAV:   7    -0.127772514745E+03   -0.13846E-03   -0.37263E-03  4848   0.400E-01    0.535E-02
DAV:   8    -0.127772535100E+03   -0.20355E-04   -0.13627E-03  4568   0.318E-01    0.395E-02
DAV:   9    -0.127772519974E+03    0.15126E-04   -0.18670E-04  4664   0.143E-01    0.247E-02
DAV:  10    -0.127772513190E+03    0.67839E-05   -0.75142E-05  4648   0.131E-01
  32 F= -.12777251E+03 E0= -.12773395E+03  d E =0.954834E-01
quench:  g(F)=  0.000E+00 g(S)=  0.000E+00 dE (1.order)= 0.000E+00
 bond charge predicted
       N       E                     dE             d eps       ncg     rms          rms(c)
DAV:   1    -0.127809875784E+03   -0.37356E-01   -0.10964E+02  4464   0.219E+01    0.683E-01
DAV:   2    -0.127868615793E+03   -0.58740E-01   -0.71732E-01  5056   0.487E+00    0.746E-01
DAV:   3    -0.127863742366E+03    0.48734E-02   -0.75358E-02  4816   0.349E+00    0.339E-01
DAV:   4    -0.127864306511E+03   -0.56414E-03   -0.13275E-02  4912   0.233E+00    0.306E-01
DAV:   5    -0.127861992029E+03    0.23145E-02   -0.14381E-02  4984   0.302E+00    0.227E-01
DAV:   6    -0.127860267311E+03    0.17247E-02   -0.74809E-03  6752   0.119E+00    0.441E-02
DAV:   7    -0.127860401160E+03   -0.13385E-03   -0.24225E-03  4888   0.316E-01    0.336E-02
DAV:   8    -0.127860467424E+03   -0.66265E-04   -0.10074E-03  4608   0.201E-01    0.271E-02
DAV:   9    -0.127860456189E+03    0.11235E-04   -0.15032E-04  4656   0.923E-02    0.145E-02
DAV:  10    -0.127860458060E+03   -0.18706E-05   -0.38111E-05  4144   0.792E-02
  33 F= -.12786046E+03 E0= -.12782241E+03  d E =-.879449E-01
quench:  g(F)=  0.000E+00 g(S)=  0.000E+00 dE (1.order)= 0.000E+00
 bond charge predicted
       N       E                     dE             d eps       ncg     rms          rms(c)
DAV:   1    -0.127857923889E+03    0.25323E-02   -0.40138E+00  4464   0.417E+00    0.122E-01
DAV:   2    -0.127859779911E+03   -0.18560E-02   -0.22483E-02  4616   0.716E-01    0.111E-01
DAV:   3    -0.127859839204E+03   -0.59293E-04   -0.29916E-03  4744   0.661E-01    0.749E-02
DAV:   4    -0.127859841418E+03   -0.22134E-05   -0.77123E-04  4784   0.629E-01    0.621E-02
DAV:   5    -0.127859732740E+03    0.10868E-03   -0.38733E-04  5064   0.545E-01    0.332E-02
DAV:   6    -0.127859690663E+03    0.42077E-04   -0.19617E-04  6640   0.245E-01    0.893E-03
DAV:   7    -0.127859690587E+03    0.75284E-07   -0.10080E-04  4840   0.994E-02    0.567E-03
DAV:   8    -0.127859693506E+03   -0.29185E-05   -0.40123E-05  4232   0.366E-02
  34 F= -.12785969E+03 E0= -.12782164E+03  d E =0.764554E-03
quench:  g(F)=  0.000E+00 g(S)=  0.000E+00 dE (1.order)= 0.000E+00
 bond charge predicted
       N       E                     dE             d eps       ncg     rms          rms(c)
DAV:   1    -0.127862008265E+03   -0.23177E-02   -0.47062E-01  4464   0.147E+00    0.437E-02
DAV:   2    -0.127862194412E+03   -0.18615E-03   -0.23089E-03  4712   0.223E-01    0.350E-02
DAV:   3    -0.127862211066E+03   -0.16654E-04   -0.33171E-04  4824   0.254E-01    0.317E-02
DAV:   4    -0.127862201707E+03    0.93583E-05   -0.10323E-04  4816   0.253E-01    0.196E-02
DAV:   5    -0.127862185124E+03    0.16583E-04   -0.41362E-05  2872   0.187E-01    0.880E-03
DAV:   6    -0.127862180850E+03    0.42741E-05   -0.14544E-05  2688   0.712E-02
  35 F= -.12786218E+03 E0= -.12782397E+03  d E =-.248734E-02
quench:  g(F)=  0.000E+00 g(S)=  0.000E+00 dE (1.order)= 0.000E+00
 bond charge predicted
       N       E                     dE             d eps       ncg     rms          rms(c)
DAV:   1    -0.127862007458E+03    0.17767E-03   -0.13157E+00  4464   0.237E+00    0.690E-02
DAV:   2    -0.127862577517E+03   -0.57006E-03   -0.70964E-03  4520   0.342E-01    0.537E-02
DAV:   3    -0.127862589530E+03   -0.12013E-04   -0.73763E-04  4648   0.274E-01    0.390E-02
DAV:   4    -0.127862558227E+03    0.31303E-04   -0.11525E-04  4832   0.176E-01    0.215E-02
DAV:   5    -0.127862549148E+03    0.90792E-05   -0.50919E-05  4368   0.705E-02
  36 F= -.12786255E+03 E0= -.12782423E+03  d E =-.368298E-03
quench:  g(F)=  0.000E+00 g(S)=  0.000E+00 dE (1.order)= 0.000E+00
 bond charge predicted
       N       E                     dE             d eps       ncg     rms          rms(c)
DAV:   1    -0.127856824693E+03    0.57335E-02   -0.42138E+00  4512   0.432E+00    0.117E-01
DAV:   2    -0.127858075962E+03   -0.12513E-02   -0.16380E-02  5000   0.556E-01    0.945E-02
DAV:   3    -0.127858183705E+03   -0.10774E-03   -0.21683E-03  4824   0.767E-01    0.885E-02
DAV:   4    -0.127857989234E+03    0.19447E-03   -0.71570E-04  4800   0.674E-01    0.486E-02
DAV:   5    -0.127857914529E+03    0.74705E-04   -0.39980E-04  7640   0.399E-01    0.260E-02
DAV:   6    -0.127857892184E+03    0.22345E-04   -0.22708E-04  6208   0.200E-01    0.109E-02
DAV:   7    -0.127857897499E+03   -0.53152E-05   -0.88737E-05  4680   0.577E-02
  37 F= -.12785790E+03 E0= -.12781950E+03  d E =0.465165E-02
quench:  g(F)=  0.000E+00 g(S)=  0.000E+00 dE (1.order)= 0.000E+00
 bond charge predicted
       N       E                     dE             d eps       ncg     rms          rms(c)
DAV:   1    -0.127844840999E+03    0.13051E-01   -0.18891E+01  4464   0.942E+00    0.251E-01
DAV:   2    -0.127847641674E+03   -0.28007E-02   -0.47742E-02  4720   0.851E-01    0.194E-01
DAV:   3    -0.127846945907E+03    0.69577E-03   -0.41224E-03  4952   0.996E-01    0.150E-01
DAV:   4    -0.127846833118E+03    0.11279E-03   -0.28785E-03  6888   0.131E+00    0.883E-02
DAV:   5    -0.127846369461E+03    0.46366E-03   -0.22670E-03  7592   0.117E+00    0.560E-02
DAV:   6    -0.127846210365E+03    0.15910E-03   -0.55880E-04  7200   0.434E-01    0.155E-02
DAV:   7    -0.127846222936E+03   -0.12571E-04   -0.22021E-04  4592   0.716E-02    0.116E-02
DAV:   8    -0.127846222693E+03    0.24312E-06   -0.30349E-05  3176   0.441E-02
  38 F= -.12784622E+03 E0= -.12780783E+03  d E =0.116748E-01
quench:  g(F)=  0.000E+00 g(S)=  0.000E+00 dE (1.order)= 0.000E+00
 bond charge predicted
       N       E                     dE             d eps       ncg     rms          rms(c)
DAV:   1    -0.127514624640E+03    0.33160E+00   -0.38807E+02  4464   0.428E+01    0.139E+00
DAV:   2    -0.127722141424E+03   -0.20752E+00   -0.25833E+00  5136   0.107E+01    0.156E+00
DAV:   3    -0.127694500451E+03    0.27641E-01   -0.32306E-01  4872   0.805E+00    0.660E-01
DAV:   4    -0.127704500879E+03   -0.10000E-01   -0.73996E-02  5296   0.617E+00    0.708E-01
DAV:   5    -0.127680153960E+03    0.24347E-01   -0.57451E-02  4968   0.561E+00    0.313E-01
DAV:   6    -0.127681012392E+03   -0.85843E-03   -0.43714E-02  5224   0.136E+00    0.185E-01
DAV:   7    -0.127680711520E+03    0.30087E-03   -0.83380E-03  4824   0.102E+00    0.866E-02
DAV:   8    -0.127680689308E+03    0.22212E-04   -0.21920E-03  4848   0.384E-01    0.451E-02
DAV:   9    -0.127680723590E+03   -0.34282E-04   -0.10954E-03  4632   0.183E-01    0.257E-02
DAV:  10    -0.127680725379E+03   -0.17894E-05   -0.11079E-04  4656   0.149E-01    0.192E-02
DAV:  11    -0.127680720750E+03    0.46290E-05   -0.29038E-05  3328   0.780E-02
  39 F= -.12768072E+03 E0= -.12764336E+03  d E =0.165502E+00
quench:  g(F)=  0.000E+00 g(S)=  0.000E+00 dE (1.order)= 0.000E+00
 bond charge predicted
       N       E                     dE             d eps       ncg     rms          rms(c)
DAV:   1    -0.127759157351E+03   -0.78432E-01   -0.77377E+01  4464   0.191E+01    0.544E-01
DAV:   2    -0.127777424352E+03   -0.18267E-01   -0.27226E-01  4736   0.258E+00    0.483E-01
DAV:   3    -0.127775711589E+03    0.17128E-02   -0.32203E-02  4784   0.270E+00    0.318E-01
DAV:   4    -0.127776663709E+03   -0.95212E-03   -0.13582E-02  5752   0.304E+00    0.268E-01
DAV:   5    -0.127772029070E+03    0.46346E-02   -0.11210E-02  7336   0.266E+00    0.112E-01
DAV:   6    -0.127771837546E+03    0.19152E-03   -0.46039E-03  6648   0.750E-01    0.471E-02
DAV:   7    -0.127771882491E+03   -0.44945E-04   -0.12187E-03  4760   0.193E-01    0.288E-02
DAV:   8    -0.127771885706E+03   -0.32143E-05   -0.29704E-04  4560   0.123E-01    0.233E-02
DAV:   9    -0.127771876160E+03    0.95453E-05   -0.55394E-05  4600   0.792E-02
  40 F= -.12777188E+03 E0= -.12773398E+03  d E =-.911554E-01
quench:  g(F)=  0.000E+00 g(S)=  0.000E+00 dE (1.order)= 0.000E+00
 bond charge predicted
       N       E                     dE             d eps       ncg     rms          rms(c)
DAV:   1    -0.127812594983E+03   -0.40709E-01   -0.66418E+01  4464   0.171E+01    0.512E-01
DAV:   2    -0.127840571718E+03   -0.27977E-01   -0.35915E-01  4632   0.253E+00    0.409E-01
DAV:   3    -0.127841059882E+03   -0.48816E-03   -0.34974E-02  4696   0.273E+00    0.301E-01
DAV:   4    -0.127840714307E+03    0.34558E-03   -0.11920E-02  4928   0.276E+00    0.235E-01
DAV:   5    -0.127838480645E+03    0.22337E-02   -0.62848E-03  5408   0.202E+00    0.130E-01
DAV:   6    -0.127838034322E+03    0.44632E-03   -0.41763E-03  6632   0.721E-01    0.349E-02
DAV:   7    -0.127838118705E+03   -0.84383E-04   -0.13343E-03  4800   0.208E-01    0.337E-02
DAV:   8    -0.127838117937E+03    0.76851E-06   -0.30161E-04  4624   0.158E-01    0.203E-02
DAV:   9    -0.127838109961E+03    0.79764E-05   -0.37759E-05  3488   0.473E-02
  41 F= -.12783811E+03 E0= -.12779955E+03  d E =-.662338E-01
quench:  g(F)=  0.000E+00 g(S)=  0.000E+00 dE (1.order)= 0.000E+00
 bond charge predicted
       N       E                     dE             d eps       ncg     rms          rms(c)
DAV:   1    -0.127839277458E+03   -0.11595E-02   -0.12418E+00  4544   0.229E+00    0.644E-02
DAV:   2    -0.127839860781E+03   -0.58332E-03   -0.70365E-03  4704   0.369E-01    0.573E-02
DAV:   3    -0.127839874123E+03   -0.13342E-04   -0.79182E-04  4752   0.283E-01    0.362E-02
DAV:   4    -0.127839855055E+03    0.19068E-04   -0.12861E-04  4848   0.193E-01    0.253E-02
DAV:   5    -0.127839874208E+03   -0.19154E-04   -0.10275E-04  4728   0.275E-01    0.267E-02
DAV:   6    -0.127839839574E+03    0.34635E-04   -0.70866E-05  3192   0.222E-01    0.492E-03
DAV:   7    -0.127839840000E+03   -0.42641E-06   -0.28194E-05  3256   0.543E-02
  42 F= -.12783984E+03 E0= -.12780135E+03  d E =-.173004E-02
quench:  g(F)=  0.000E+00 g(S)=  0.000E+00 dE (1.order)= 0.000E+00
 bond charge predicted
       N       E                     dE             d eps       ncg     rms          rms(c)
DAV:   1    -0.127837721974E+03    0.21176E-02   -0.24121E+00  4464   0.334E+00    0.906E-02
DAV:   2    -0.127838408280E+03   -0.68631E-03   -0.91732E-03  4704   0.435E-01    0.753E-02
DAV:   3    -0.127838435711E+03   -0.27432E-04   -0.12090E-03  4768   0.510E-01    0.626E-02
DAV:   4    -0.127838391390E+03    0.44322E-04   -0.47687E-04  4848   0.534E-01    0.442E-02
DAV:   5    -0.127838315089E+03    0.76300E-04   -0.23080E-04  5536   0.400E-01    0.191E-02
DAV:   6    -0.127838304210E+03    0.10879E-04   -0.15326E-04  6464   0.152E-01    0.593E-03
DAV:   7    -0.127838306432E+03   -0.22212E-05   -0.47168E-05  4344   0.525E-02
  43 F= -.12783831E+03 E0= -.12779994E+03  d E =0.153357E-02
quench:  g(F)=  0.000E+00 g(S)=  0.000E+00 dE (1.order)= 0.000E+00
 bond charge predicted
       N       E                     dE             d eps       ncg     rms          rms(c)
DAV:   1    -0.127836141284E+03    0.21629E-02   -0.88682E-01  4464   0.204E+00    0.542E-02
DAV:   2    -0.127836282837E+03   -0.14155E-03   -0.22868E-03  4752   0.198E-01    0.417E-02
DAV:   3    -0.127836274080E+03    0.87570E-05   -0.25881E-04  4584   0.278E-01    0.378E-02
DAV:   4    -0.127836253544E+03    0.20536E-04   -0.17202E-04  4776   0.340E-01    0.236E-02
DAV:   5    -0.127836223784E+03    0.29760E-04   -0.79903E-05  3160   0.242E-01    0.889E-03
DAV:   6    -0.127836221420E+03    0.23641E-05   -0.39608E-05  3528   0.786E-02
  44 F= -.12783622E+03 E0= -.12779789E+03  d E =0.208501E-02
quench:  g(F)=  0.000E+00 g(S)=  0.000E+00 dE (1.order)= 0.000E+00
 bond charge predicted
       N       E                     dE             d eps       ncg     rms          rms(c)
DAV:   1    -0.127729365313E+03    0.10686E+00   -0.35921E+02  4464   0.422E+01    0.123E+00
DAV:   2    -0.127818999965E+03   -0.89635E-01   -0.13398E+00  5128   0.744E+00    0.123E+00
DAV:   3    -0.127805662172E+03    0.13338E-01   -0.19675E-01  4840   0.734E+00    0.690E-01
DAV:   4    -0.127809013728E+03   -0.33516E-02   -0.73761E-02  5808   0.666E+00    0.655E-01
DAV:   5    -0.127782331455E+03    0.26682E-01   -0.57451E-02  6088   0.525E+00    0.250E-01
DAV:   6    -0.127785095059E+03   -0.27636E-02   -0.41668E-02  5144   0.138E+00    0.215E-01
DAV:   7    -0.127784377810E+03    0.71725E-03   -0.56339E-03  4672   0.797E-01    0.801E-02
DAV:   8    -0.127784338875E+03    0.38935E-04   -0.21019E-03  4560   0.262E-01    0.498E-02
DAV:   9    -0.127784339531E+03   -0.65551E-06   -0.55150E-04  4560   0.238E-01    0.276E-02
DAV:  10    -0.127784329293E+03    0.10238E-04   -0.81003E-05  4512   0.138E-01    0.150E-02
DAV:  11    -0.127784330280E+03   -0.98751E-06   -0.56762E-05  4528   0.528E-02
  45 F= -.12778433E+03 E0= -.12774617E+03  d E =0.518911E-01
quench:  g(F)=  0.000E+00 g(S)=  0.000E+00 dE (1.order)= 0.000E+00
 bond charge predicted
       N       E                     dE             d eps       ncg     rms          rms(c)
DAV:   1    -0.127801577855E+03   -0.17249E-01   -0.58118E+01  4464   0.166E+01    0.457E-01
DAV:   2    -0.127810567740E+03   -0.89899E-02   -0.15386E-01  4816   0.197E+00    0.396E-01
DAV:   3    -0.127809278543E+03    0.12892E-02   -0.20332E-02  4824   0.233E+00    0.283E-01
DAV:   4    -0.127809964866E+03   -0.68632E-03   -0.11630E-02  6352   0.282E+00    0.221E-01
DAV:   5    -0.127806047517E+03    0.39173E-02   -0.97608E-03  8480   0.216E+00    0.882E-02
DAV:   6    -0.127806027705E+03    0.19812E-04   -0.27963E-03  5904   0.548E-01    0.490E-02
DAV:   7    -0.127806033242E+03   -0.55372E-05   -0.82041E-04  4712   0.200E-01    0.238E-02
DAV:   8    -0.127806030810E+03    0.24317E-05   -0.19920E-04  4648   0.936E-02    0.178E-02
DAV:   9    -0.127806026389E+03    0.44213E-05   -0.31816E-05  3640   0.727E-02
  46 F= -.12780603E+03 E0= -.12776789E+03  d E =-.216961E-01
quench:  g(F)=  0.000E+00 g(S)=  0.000E+00 dE (1.order)= 0.000E+00
 bond charge predicted
       N       E                     dE             d eps       ncg     rms          rms(c)
DAV:   1    -0.127805766450E+03    0.26436E-03   -0.22199E+00  4464   0.319E+00    0.897E-02
DAV:   2    -0.127806472512E+03   -0.70606E-03   -0.92353E-03  4544   0.442E-01    0.750E-02
DAV:   3    -0.127806502807E+03   -0.30296E-04   -0.12797E-03  4760   0.497E-01    0.636E-02
DAV:   4    -0.127806457871E+03    0.44937E-04   -0.48075E-04  4784   0.524E-01    0.450E-02
DAV:   5    -0.127806381976E+03    0.75895E-04   -0.23209E-04  5376   0.402E-01    0.181E-02
DAV:   6    -0.127806365250E+03    0.16726E-04   -0.11632E-04  5280   0.162E-01    0.634E-03
DAV:   7    -0.127806369133E+03   -0.38834E-05   -0.73480E-05  4960   0.670E-02
  47 F= -.12780637E+03 E0= -.12776804E+03  d E =-.342744E-03
quench:  g(F)=  0.000E+00 g(S)=  0.000E+00 dE (1.order)= 0.000E+00
 bond charge predicted
       N       E                     dE             d eps       ncg     rms          rms(c)
DAV:   1    -0.127733337118E+03    0.73028E-01   -0.28069E+02  4464   0.372E+01    0.108E+00
DAV:   2    -0.127795616431E+03   -0.62279E-01   -0.97379E-01  4912   0.608E+00    0.106E+00
DAV:   3    -0.127783890331E+03    0.11726E-01   -0.13159E-01  4840   0.568E+00    0.598E-01
DAV:   4    -0.127793262994E+03   -0.93727E-02   -0.61994E-02  6096   0.609E+00    0.600E-01
DAV:   5    -0.127767628186E+03    0.25635E-01   -0.52445E-02  6496   0.527E+00    0.236E-01
DAV:   6    -0.127769010184E+03   -0.13820E-02   -0.27823E-02  5560   0.128E+00    0.174E-01
DAV:   7    -0.127768597267E+03    0.41292E-03   -0.45317E-03  4664   0.612E-01    0.644E-02
DAV:   8    -0.127768599424E+03   -0.21569E-05   -0.16231E-03  4600   0.222E-01    0.416E-02
DAV:   9    -0.127768597744E+03    0.16804E-05   -0.34491E-04  4824   0.206E-01    0.259E-02
DAV:  10    -0.127768588711E+03    0.90327E-05   -0.52158E-05  4112   0.123E-01
  48 F= -.12776859E+03 E0= -.12772938E+03  d E =0.377804E-01
quench:  g(F)=  0.000E+00 g(S)=  0.000E+00 dE (1.order)= 0.000E+00
 bond charge predicted
       N       E                     dE             d eps       ncg     rms          rms(c)
DAV:   1    -0.127685205358E+03    0.83392E-01   -0.17026E+02  4464   0.288E+01    0.817E-01
DAV:   2    -0.127724260713E+03   -0.39055E-01   -0.58074E-01  4784   0.456E+00    0.817E-01
DAV:   3    -0.127718092737E+03    0.61680E-02   -0.86509E-02  4712   0.415E+00    0.460E-01
DAV:   4    -0.127726800491E+03   -0.87078E-02   -0.39857E-02  7392   0.471E+00    0.455E-01
DAV:   5    -0.127709591109E+03    0.17209E-01   -0.31438E-02  6016   0.437E+00    0.178E-01
DAV:   6    -0.127710128179E+03   -0.53707E-03   -0.12893E-02  5624   0.869E-01    0.119E-01
DAV:   7    -0.127709968218E+03    0.15996E-03   -0.22080E-03  4728   0.407E-01    0.548E-02
DAV:   8    -0.127709931112E+03    0.37106E-04   -0.55164E-04  5024   0.175E-01    0.332E-02
DAV:   9    -0.127709920510E+03    0.10602E-04   -0.25273E-04  4672   0.113E-01    0.141E-02
DAV:  10    -0.127709917347E+03    0.31638E-05   -0.25030E-05  3072   0.731E-02
  49 F= -.12770992E+03 E0= -.12766983E+03  d E =0.586714E-01
quench:  g(F)=  0.000E+00 g(S)=  0.000E+00 dE (1.order)= 0.000E+00
 bond charge predicted
       N       E                     dE             d eps       ncg     rms          rms(c)
DAV:   1    -0.127710839524E+03   -0.91901E-03   -0.20241E+01  4464   0.979E+00    0.262E-01
DAV:   2    -0.127714059332E+03   -0.32198E-02   -0.53363E-02  4584   0.993E-01    0.205E-01
DAV:   3    -0.127713696183E+03    0.36315E-03   -0.59296E-03  4776   0.128E+00    0.174E-01
DAV:   4    -0.127713537477E+03    0.15871E-03   -0.40027E-03  5664   0.160E+00    0.113E-01
DAV:   5    -0.127712709442E+03    0.82803E-03   -0.27949E-03  8136   0.121E+00    0.429E-02
DAV:   6    -0.127712648545E+03    0.60897E-04   -0.70354E-04  6776   0.347E-01    0.193E-02
DAV:   7    -0.127712660191E+03   -0.11646E-04   -0.23483E-04  4728   0.769E-02    0.131E-02
DAV:   8    -0.127712660017E+03    0.17384E-06   -0.38910E-05  4112   0.531E-02
  50 F= -.12771266E+03 E0= -.12767277E+03  d E =-.274267E-02
quench:  g(F)=  0.000E+00 g(S)=  0.000E+00 dE (1.order)= 0.000E+00
 bond charge predicted
       N       E                     dE             d eps       ncg     rms          rms(c)
DAV:   1    -0.127715761963E+03   -0.31018E-02   -0.21234E+00  4496   0.318E+00    0.869E-02
DAV:   2    -0.127716097890E+03   -0.33593E-03   -0.55323E-03  4560   0.340E-01    0.679E-02
DAV:   3    -0.127716108458E+03   -0.10568E-04   -0.83906E-04  4784   0.499E-01    0.651E-02
DAV:   4    -0.127716044975E+03    0.63483E-04   -0.52770E-04  5024   0.574E-01    0.429E-02
DAV:   5    -0.127715961841E+03    0.83134E-04   -0.27992E-04  7096   0.373E-01    0.117E-02
DAV:   6    -0.127715957959E+03    0.38826E-05   -0.70421E-05  4720   0.937E-02
  51 F= -.12771596E+03 E0= -.12767613E+03  d E =-.329794E-02
quench:  g(F)=  0.000E+00 g(S)=  0.000E+00 dE (1.order)= 0.000E+00
 bond charge predicted
       N       E                     dE             d eps       ncg     rms          rms(c)
DAV:   1    -0.127720885125E+03   -0.49233E-02   -0.29122E+01  4512   0.118E+01    0.323E-01
DAV:   2    -0.127725881985E+03   -0.49969E-02   -0.79768E-02  4688   0.143E+00    0.274E-01
DAV:   3    -0.127725696580E+03    0.18540E-03   -0.12929E-02  4808   0.178E+00    0.219E-01
DAV:   4    -0.127725869962E+03   -0.17338E-03   -0.68317E-03  5504   0.208E+00    0.169E-01
DAV:   5    -0.127723983684E+03    0.18863E-02   -0.46425E-03  8352   0.153E+00    0.526E-02
DAV:   6    -0.127723990397E+03   -0.67126E-05   -0.12563E-03  6008   0.319E-01    0.286E-02
DAV:   7    -0.127724003875E+03   -0.13478E-04   -0.36213E-04  4760   0.102E-01    0.203E-02
DAV:   8    -0.127724000164E+03    0.37106E-05   -0.49242E-05  4416   0.599E-02
  52 F= -.12772400E+03 E0= -.12768445E+03  d E =-.804221E-02
quench:  g(F)=  0.000E+00 g(S)=  0.000E+00 dE (1.order)= 0.000E+00
 bond charge predicted
       N       E                     dE             d eps       ncg     rms          rms(c)
DAV:   1    -0.127724212079E+03   -0.20820E-03   -0.27282E+01  4464   0.114E+01    0.319E-01
DAV:   2    -0.127728053938E+03   -0.38419E-02   -0.67591E-02  4704   0.139E+00    0.274E-01
DAV:   3    -0.127727688934E+03    0.36500E-03   -0.12402E-02  4840   0.166E+00    0.210E-01
DAV:   4    -0.127728443129E+03   -0.75420E-03   -0.71815E-03  6272   0.207E+00    0.180E-01
DAV:   5    -0.127726205503E+03    0.22376E-02   -0.49867E-03  8312   0.158E+00    0.662E-02
DAV:   6    -0.127726192484E+03    0.13019E-04   -0.11707E-03  5368   0.250E-01    0.366E-02
DAV:   7    -0.127726187198E+03    0.52863E-05   -0.25517E-04  4720   0.823E-02    0.247E-02
DAV:   8    -0.127726178564E+03    0.86336E-05   -0.27211E-05  3080   0.441E-02
  53 F= -.12772618E+03 E0= -.12768676E+03  d E =-.217840E-02
quench:  g(F)=  0.000E+00 g(S)=  0.000E+00 dE (1.order)= 0.000E+00
 bond charge predicted
       N       E                     dE             d eps       ncg     rms          rms(c)
DAV:   1    -0.127707420677E+03    0.18767E-01   -0.12286E+02  4464   0.244E+01    0.711E-01
DAV:   2    -0.127729623702E+03   -0.22203E-01   -0.36949E-01  4808   0.376E+00    0.679E-01
DAV:   3    -0.127725721672E+03    0.39020E-02   -0.63790E-02  4760   0.371E+00    0.407E-01
DAV:   4    -0.127731135149E+03   -0.54135E-02   -0.31253E-02  5920   0.427E+00    0.405E-01
DAV:   5    -0.127718888238E+03    0.12247E-01   -0.25260E-02  6960   0.365E+00    0.142E-01
DAV:   6    -0.127719331387E+03   -0.44315E-03   -0.97783E-03  5536   0.732E-01    0.969E-02
DAV:   7    -0.127719249230E+03    0.82157E-04   -0.18230E-03  4832   0.304E-01    0.433E-02
DAV:   8    -0.127719227410E+03    0.21820E-04   -0.41476E-04  4736   0.138E-01    0.296E-02
DAV:   9    -0.127719220506E+03    0.69036E-05   -0.11849E-04  4760   0.125E-01    0.190E-02
DAV:  10    -0.127719212680E+03    0.78257E-05   -0.24320E-05  3144   0.905E-02
  54 F= -.12771921E+03 E0= -.12767962E+03  d E =0.696588E-02
quench:  g(F)=  0.000E+00 g(S)=  0.000E+00 dE (1.order)= 0.000E+00
 bond charge predicted
       N       E                     dE             d eps       ncg     rms          rms(c)
DAV:   1    -0.127633827981E+03    0.85393E-01   -0.21236E+02  4464   0.323E+01    0.976E-01
DAV:   2    -0.127700973844E+03   -0.67146E-01   -0.91422E-01  4848   0.669E+00    0.108E+00
DAV:   3    -0.127692127057E+03    0.88468E-02   -0.16165E-01  4816   0.549E+00    0.526E-01
DAV:   4    -0.127706422526E+03   -0.14295E-01   -0.59608E-02  5272   0.583E+00    0.624E-01
DAV:   5    -0.127681159969E+03    0.25263E-01   -0.45205E-02  5328   0.496E+00    0.157E-01
DAV:   6    -0.127683051860E+03   -0.18919E-02   -0.24450E-02  4736   0.756E-01    0.142E-01
DAV:   7    -0.127682721922E+03    0.32994E-03   -0.17572E-03  4680   0.412E-01    0.697E-02
DAV:   8    -0.127682654236E+03    0.67686E-04   -0.61224E-04  5424   0.183E-01    0.407E-02
DAV:   9    -0.127682639543E+03    0.14692E-04   -0.27433E-04  4592   0.144E-01    0.226E-02
DAV:  10    -0.127682628049E+03    0.11494E-04   -0.34183E-05  3608   0.112E-01    0.103E-02
DAV:  11    -0.127682628889E+03   -0.83962E-06   -0.29707E-05  3144   0.484E-02
  55 F= -.12768263E+03 E0= -.12764155E+03  d E =0.365838E-01
quench:  g(F)=  0.000E+00 g(S)=  0.000E+00 dE (1.order)= 0.000E+00
 bond charge predicted
       N       E                     dE             d eps       ncg     rms          rms(c)
DAV:   1    -0.127704072596E+03   -0.21445E-01   -0.13845E+01  4544   0.814E+00    0.234E-01
DAV:   2    -0.127707907754E+03   -0.38352E-02   -0.50412E-02  4608   0.115E+00    0.196E-01
DAV:   3    -0.127707956627E+03   -0.48872E-04   -0.76778E-03  4816   0.121E+00    0.160E-01
DAV:   4    -0.127708330501E+03   -0.37387E-03   -0.32814E-03  5216   0.143E+00    0.129E-01
DAV:   5    -0.127707264045E+03    0.10665E-02   -0.20457E-03  7328   0.108E+00    0.467E-02
DAV:   6    -0.127707259464E+03    0.45814E-05   -0.52353E-04  5680   0.179E-01    0.248E-02
DAV:   7    -0.127707259109E+03    0.35462E-06   -0.12610E-04  4736   0.671E-02    0.173E-02
DAV:   8    -0.127707255424E+03    0.36848E-05   -0.16532E-05  2672   0.344E-02
  56 F= -.12770726E+03 E0= -.12766671E+03  d E =-.246265E-01
quench:  g(F)=  0.000E+00 g(S)=  0.000E+00 dE (1.order)= 0.000E+00
 bond charge predicted
       N       E                     dE             d eps       ncg     rms          rms(c)
DAV:   1    -0.127712118688E+03   -0.48596E-02   -0.16300E+00  4464   0.278E+00    0.778E-02
DAV:   2    -0.127712580561E+03   -0.46187E-03   -0.59096E-03  4720   0.399E-01    0.679E-02
DAV:   3    -0.127712576441E+03    0.41204E-05   -0.88319E-04  4864   0.352E-01    0.492E-02
DAV:   4    -0.127712521162E+03    0.55279E-04   -0.13600E-04  5848   0.167E-01    0.189E-02
DAV:   5    -0.127712531624E+03   -0.10462E-04   -0.88712E-05  3984   0.232E-01    0.189E-02
DAV:   6    -0.127712511440E+03    0.20184E-04   -0.35332E-05  2704   0.144E-01    0.674E-03
DAV:   7    -0.127712512175E+03   -0.73529E-06   -0.21924E-05  2864   0.281E-02
  57 F= -.12771251E+03 E0= -.12767211E+03  d E =-.525675E-02
quench:  g(F)=  0.000E+00 g(S)=  0.000E+00 dE (1.order)= 0.000E+00
 bond charge predicted
       N       E                     dE             d eps       ncg     rms          rms(c)
DAV:   1    -0.127716223312E+03   -0.37119E-02   -0.10026E+01  4512   0.690E+00    0.193E-01
DAV:   2    -0.127719062168E+03   -0.28389E-02   -0.36641E-02  4664   0.968E-01    0.165E-01
DAV:   3    -0.127719089488E+03   -0.27320E-04   -0.53885E-03  4808   0.985E-01    0.129E-01
DAV:   4    -0.127719214934E+03   -0.12545E-03   -0.20301E-03  5104   0.110E+00    0.101E-01
DAV:   5    -0.127718633513E+03    0.58142E-03   -0.14211E-03  6936   0.913E-01    0.337E-02
DAV:   6    -0.127718619853E+03    0.13660E-04   -0.39575E-04  6616   0.211E-01    0.164E-02
DAV:   7    -0.127718624955E+03   -0.51017E-05   -0.12873E-04  4664   0.643E-02    0.120E-02
DAV:   8    -0.127718623910E+03    0.10450E-05   -0.18373E-05  2704   0.351E-02
  58 F= -.12771862E+03 E0= -.12767852E+03  d E =-.611173E-02
quench:  g(F)=  0.000E+00 g(S)=  0.000E+00 dE (1.order)= 0.000E+00
 bond charge predicted
       N       E                     dE             d eps       ncg     rms          rms(c)
DAV:   1    -0.127718825939E+03   -0.20098E-03   -0.42309E-01  4568   0.140E+00    0.388E-02
DAV:   2    -0.127718937306E+03   -0.11137E-03   -0.14910E-03  4712   0.191E-01    0.335E-02
DAV:   3    -0.127718936735E+03    0.57128E-06   -0.21325E-04  4832   0.192E-01    0.258E-02
DAV:   4    -0.127718937420E+03   -0.68586E-06   -0.83845E-05  4312   0.221E-01
  59 F= -.12771894E+03 E0= -.12767882E+03  d E =-.313511E-03
quench:  g(F)=  0.000E+00 g(S)=  0.000E+00 dE (1.order)= 0.000E+00
 bond charge predicted
       N       E                     dE             d eps       ncg     rms          rms(c)
DAV:   1    -0.127718938731E+03   -0.19968E-05   -0.33770E-01  4488   0.128E+00    0.371E-02
DAV:   2    -0.127719022274E+03   -0.83543E-04   -0.94041E-04  4840   0.298E-01    0.381E-02
DAV:   3    -0.127719010386E+03    0.11888E-04   -0.38861E-04  4656   0.341E-01    0.277E-02
DAV:   4    -0.127718991476E+03    0.18909E-04   -0.11384E-04  4624   0.142E-01    0.155E-02
DAV:   5    -0.127718989257E+03    0.22193E-05   -0.55800E-05  4304   0.918E-02
  60 F= -.12771899E+03 E0= -.12767881E+03  d E =-.518363E-04
quench:  g(F)=  0.000E+00 g(S)=  0.000E+00 dE (1.order)= 0.000E+00
 bond charge predicted
       N       E                     dE             d eps       ncg     rms          rms(c)
DAV:   1    -0.127718463431E+03    0.52805E-03   -0.19050E+00  4472   0.296E+00    0.817E-02
DAV:   2    -0.127718873149E+03   -0.40972E-03   -0.60521E-03  4568   0.324E-01    0.635E-02
DAV:   3    -0.127718821799E+03    0.51350E-04   -0.57218E-04  4760   0.323E-01    0.508E-02
DAV:   4    -0.127718778278E+03    0.43521E-04   -0.25669E-04  5744   0.352E-01    0.263E-02
DAV:   5    -0.127718776430E+03    0.18480E-05   -0.24758E-04  5736   0.378E-01    0.220E-02
DAV:   6    -0.127718741006E+03    0.35424E-04   -0.62350E-05  2872   0.187E-01    0.382E-03
DAV:   7    -0.127718745992E+03   -0.49856E-05   -0.55239E-05  4448   0.300E-02
  61 F= -.12771875E+03 E0= -.12767847E+03  d E =0.243265E-03
quench:  g(F)=  0.000E+00 g(S)=  0.000E+00 dE (1.order)= 0.000E+00
 bond charge predicted
       N       E                     dE             d eps       ncg     rms          rms(c)
DAV:   1    -0.127714545909E+03    0.41951E-02   -0.20601E+01  4496   0.968E+00    0.269E-01
DAV:   2    -0.127718775056E+03   -0.42291E-02   -0.63601E-02  4768   0.113E+00    0.227E-01
DAV:   3    -0.127718304694E+03    0.47036E-03   -0.76199E-03  4736   0.125E+00    0.170E-01
DAV:   4    -0.127718236313E+03    0.68382E-04   -0.35944E-03  6192   0.142E+00    0.125E-01
DAV:   5    -0.127717424284E+03    0.81203E-03   -0.34071E-03  7720   0.134E+00    0.569E-02
DAV:   6    -0.127717286328E+03    0.13796E-03   -0.99980E-04  7232   0.458E-01    0.174E-02
DAV:   7    -0.127717308576E+03   -0.22248E-04   -0.35029E-04  4704   0.901E-02    0.143E-02
DAV:   8    -0.127717307400E+03    0.11762E-05   -0.39937E-05  4288   0.523E-02
  62 F= -.12771731E+03 E0= -.12767692E+03  d E =0.143859E-02
quench:  g(F)=  0.000E+00 g(S)=  0.000E+00 dE (1.order)= 0.000E+00
 bond charge predicted
       N       E                     dE             d eps       ncg     rms          rms(c)
DAV:   1    -0.127705988017E+03    0.11321E-01   -0.64901E+01  4464   0.172E+01    0.488E-01
DAV:   2    -0.127720955422E+03   -0.14967E-01   -0.22016E-01  4816   0.230E+00    0.438E-01
DAV:   3    -0.127719355098E+03    0.16003E-02   -0.27507E-02  4784   0.245E+00    0.296E-01
DAV:   4    -0.127719773850E+03   -0.41875E-03   -0.12717E-02  5720   0.272E+00    0.260E-01
DAV:   5    -0.127716118130E+03    0.36557E-02   -0.10997E-02  7488   0.239E+00    0.936E-02
DAV:   6    -0.127715933127E+03    0.18500E-03   -0.40477E-03  6880   0.706E-01    0.388E-02
DAV:   7    -0.127715999961E+03   -0.66834E-04   -0.12385E-03  4720   0.191E-01    0.306E-02
DAV:   8    -0.127715994331E+03    0.56308E-05   -0.18227E-04  4568   0.116E-01    0.199E-02
DAV:   9    -0.127715985931E+03    0.83992E-05   -0.51076E-05  4008   0.544E-02
  63 F= -.12771599E+03 E0= -.12767507E+03  d E =0.132147E-02
quench:  g(F)=  0.000E+00 g(S)=  0.000E+00 dE (1.order)= 0.000E+00
 bond charge predicted
       N       E                     dE             d eps       ncg     rms          rms(c)
DAV:   1    -0.127713097815E+03    0.28965E-02   -0.11840E+01  4488   0.726E+00    0.195E-01
DAV:   2    -0.127716589437E+03   -0.34916E-02   -0.45104E-02  4744   0.889E-01    0.167E-01
DAV:   3    -0.127716379528E+03    0.20991E-03   -0.46248E-03  4816   0.792E-01    0.121E-01
DAV:   4    -0.127715954077E+03    0.42545E-03   -0.88818E-04  5248   0.412E-01    0.447E-02
DAV:   5    -0.127715954242E+03   -0.16535E-06   -0.52999E-04  6456   0.217E-01    0.244E-02
DAV:   6    -0.127715937001E+03    0.17241E-04   -0.21275E-04  4704   0.299E-01    0.168E-02
DAV:   7    -0.127715924859E+03    0.12143E-04   -0.43394E-05  3800   0.121E-01    0.764E-03
DAV:   8    -0.127715924913E+03   -0.54206E-07   -0.27769E-05  3168   0.417E-02
  64 F= -.12771592E+03 E0= -.12767493E+03  d E =0.610187E-04
quench:  g(F)=  0.000E+00 g(S)=  0.000E+00 dE (1.order)= 0.000E+00
 bond charge predicted
       N       E                     dE             d eps       ncg     rms          rms(c)
DAV:   1    -0.127712423476E+03    0.35014E-02   -0.33784E+01  4464   0.124E+01    0.344E-01
DAV:   2    -0.127720191016E+03   -0.77675E-02   -0.11328E-01  4608   0.147E+00    0.296E-01
DAV:   3    -0.127719181423E+03    0.10096E-02   -0.12052E-02  4696   0.139E+00    0.206E-01
DAV:   4    -0.127717929819E+03    0.12516E-02   -0.33418E-03  6920   0.889E-01    0.804E-02
DAV:   5    -0.127718803134E+03   -0.87331E-03   -0.38955E-03  5608   0.149E+00    0.135E-01
DAV:   6    -0.127717654603E+03    0.11485E-02   -0.19097E-03  6232   0.109E+00    0.190E-02
DAV:   7    -0.127717704903E+03   -0.50300E-04   -0.62444E-04  5648   0.134E-01    0.198E-02
DAV:   8    -0.127717706028E+03   -0.11256E-05   -0.12161E-04  4704   0.966E-02    0.125E-02
DAV:   9    -0.127717703515E+03    0.25132E-05   -0.11473E-05  2704   0.196E-02
  65 F= -.12771770E+03 E0= -.12767714E+03  d E =-.177860E-02
quench:  g(F)=  0.000E+00 g(S)=  0.000E+00 dE (1.order)= 0.000E+00
 bond charge predicted
       N       E                     dE             d eps       ncg     rms          rms(c)
DAV:   1    -0.127715652111E+03    0.20539E-02   -0.47701E+00  4464   0.445E+00    0.114E-01
DAV:   2    -0.127717681591E+03   -0.20295E-02   -0.23273E-02  4640   0.553E-01    0.970E-02
DAV:   3    -0.127717602040E+03    0.79551E-04   -0.13049E-03  4896   0.401E-01    0.672E-02
DAV:   4    -0.127717491739E+03    0.11030E-03   -0.27391E-04  5024   0.312E-01    0.418E-02
DAV:   5    -0.127717595884E+03   -0.10414E-03   -0.43440E-04  6792   0.487E-01    0.487E-02
DAV:   6    -0.127717441766E+03    0.15412E-03   -0.28214E-04  6216   0.396E-01    0.894E-03
DAV:   7    -0.127717447272E+03   -0.55068E-05   -0.84591E-05  4720   0.543E-02
  66 F= -.12771745E+03 E0= -.12767679E+03  d E =0.256243E-03
quench:  g(F)=  0.000E+00 g(S)=  0.000E+00 dE (1.order)= 0.000E+00
 bond charge predicted
       N       E                     dE             d eps       ncg     rms          rms(c)
DAV:   1    -0.127717711256E+03   -0.26949E-03   -0.87132E-01  4464   0.199E+00    0.560E-02
DAV:   2    -0.127718027864E+03   -0.31661E-03   -0.38889E-03  4560   0.260E-01    0.452E-02
DAV:   3    -0.127718015559E+03    0.12305E-04   -0.30577E-04  4880   0.236E-01    0.349E-02
DAV:   4    -0.127718004270E+03    0.11289E-04   -0.12502E-04  4800   0.273E-01    0.220E-02
DAV:   5    -0.127717988520E+03    0.15749E-04   -0.10787E-04  2936   0.270E-01    0.144E-02
DAV:   6    -0.127717975580E+03    0.12940E-04   -0.32924E-05  2928   0.119E-01    0.309E-03
DAV:   7    -0.127717978929E+03   -0.33488E-05   -0.37032E-05  3808   0.210E-02
  67 F= -.12771798E+03 E0= -.12767739E+03  d E =-.531657E-03
quench:  g(F)=  0.000E+00 g(S)=  0.000E+00 dE (1.order)= 0.000E+00
 reached required accuracy - stopping structural energy minimisation
