 vasp.5.4.1 05Feb16 (build Nov 22 2018 20:17:51) complex                        
  
 POSCAR found type information on POSCAR  Si
 04/POSCAR found :  1 types and      63 ions
 scaLAPACK will be used

 ----------------------------------------------------------------------------- 
|                                                                             |
|           W    W    AA    RRRRR   N    N  II  N    N   GGGG   !!!           |
|           W    W   A  A   R    R  NN   N  II  NN   N  G    G  !!!           |
|           W    W  A    A  R    R  N N  N  II  N N  N  G       !!!           |
|           W WW W  AAAAAA  RRRRR   N  N N  II  N  N N  G  GGG   !            |
|           WW  WW  A    A  R   R   N   NN  II  N   NN  G    G                |
|           W    W  A    A  R    R  N    N  II  N    N   GGGG   !!!           |
|                                                                             |
|      For optimal performance we recommend to set                            |
|        NCORE= 4 - approx SQRT( number of cores)                             |
|      NCORE specifies how many cores store one orbital (NPAR=cpu/NCORE).     |
|      This setting can  greatly improve the performance of VASP for DFT.     |
|      The default, NPAR=number of cores might be grossly inefficient         |
|      on modern multi-core architectures or massively parallel machines.     |
|      Do your own testing !!!!                                               |
|      Unfortunately you need to use the default for GW and RPA calculations. |
|      (for HF NCORE is supported but not extensively tested yet)             |
|                                                                             |
 ----------------------------------------------------------------------------- 


 ----------------------------------------------------------------------------- 
|                                                                             |
|  ADVICE TO THIS USER RUNNING 'VASP/VAMP'   (HEAR YOUR MASTER'S VOICE ...):  |
|                                                                             |
|      You have a (more or less) 'large supercell' and for larger cells       |
|      it might be more efficient to use real space projection operators      |
|      So try LREAL= Auto  in the INCAR   file.                               |
|      Mind: If you want to do a very accurate calculations keep the          |
|      reciprocal projection scheme          (i.e. LREAL=.FALSE.)             |
|                                                                             |
 ----------------------------------------------------------------------------- 

 LDA part: xc-table for Ceperly-Alder, standard interpolation
 POSCAR found type information on POSCAR  Si
 00/POSCAR found :  1 types and      63 ions
 POSCAR found type information on POSCAR  Si
 06/POSCAR found :  1 types and      63 ions
 Jacobian:    21.7332726272699     
 POSCAR, INCAR and KPOINTS ok, starting setup
 WARNING: small aliasing (wrap around) errors must be expected
 FFT: planning ...
 WAVECAR not read
 entering main loop
       N       E                     dE             d eps       ncg     rms          rms(c)
DAV:   1     0.665023358534E+03    0.66502E+03   -0.93869E+04  6080   0.126E+03
DAV:   2    -0.270726194514E+03   -0.93575E+03   -0.89155E+03  7232   0.184E+02
DAV:   3    -0.341270052843E+03   -0.70544E+02   -0.69236E+02  7448   0.443E+01
DAV:   4    -0.343155742633E+03   -0.18857E+01   -0.18726E+01  7352   0.881E+00
DAV:   5    -0.343215126326E+03   -0.59384E-01   -0.59222E-01  7376   0.150E+00    0.163E+01
DAV:   6    -0.339608108015E+03    0.36070E+01   -0.31915E+00  7192   0.291E+00    0.965E+00
DAV:   7    -0.338113811206E+03    0.14943E+01   -0.41554E+00  6760   0.336E+00    0.123E+00
DAV:   8    -0.338138244533E+03   -0.24433E-01   -0.27972E-01  7264   0.105E+00    0.506E-01
DAV:   9    -0.338147378041E+03   -0.91335E-02   -0.36424E-02  6968   0.398E-01    0.174E-01
DAV:  10    -0.338149316775E+03   -0.19387E-02   -0.64799E-03  7016   0.153E-01    0.614E-02
DAV:  11    -0.338149597399E+03   -0.28062E-03   -0.51820E-04  7224   0.539E-02    0.292E-02
DAV:  12    -0.338149700212E+03   -0.10281E-03   -0.27020E-04  7296   0.328E-02    0.952E-03
DAV:  13    -0.338149706114E+03   -0.59019E-05   -0.35231E-05  5200   0.131E-02
   1 F= -.33814971E+03 E0= -.33814942E+03  d E =-.338150E+03
quench:  g(F)=  0.000E+00 g(S)=  0.000E+00 dE (1.order)= 0.000E+00
 bond charge predicted
       N       E                     dE             d eps       ncg     rms          rms(c)
DAV:   1    -0.338190569438E+03   -0.40869E-01   -0.18348E-01  6504   0.771E-01    0.238E-01
DAV:   2    -0.338188898920E+03    0.16705E-02   -0.10141E-02  7328   0.200E-01    0.144E-01
DAV:   3    -0.338187666338E+03    0.12326E-02   -0.33354E-03  6832   0.107E-01    0.231E-02
DAV:   4    -0.338187696294E+03   -0.29956E-04   -0.43657E-04  7080   0.417E-02    0.172E-02
DAV:   5    -0.338187697706E+03   -0.14116E-05   -0.30035E-05  5296   0.113E-02
   2 F= -.33818770E+03 E0= -.33818748E+03  d E =-.379916E-01
quench:  g(F)=  0.000E+00 g(S)=  0.000E+00 dE (1.order)= 0.000E+00
 bond charge predicted
       N       E                     dE             d eps       ncg     rms          rms(c)
DAV:   1    -0.338243041163E+03   -0.55345E-01   -0.33717E-01  6368   0.108E+00    0.253E-01
DAV:   2    -0.338241981685E+03    0.10595E-02   -0.23376E-02  7416   0.313E-01    0.158E-01
DAV:   3    -0.338240548020E+03    0.14337E-02   -0.51246E-03  7200   0.144E-01    0.333E-02
DAV:   4    -0.338240621795E+03   -0.73775E-04   -0.11011E-03  7064   0.624E-02    0.231E-02
DAV:   5    -0.338240613526E+03    0.82689E-05   -0.58668E-05  7056   0.158E-02
   3 F= -.33824061E+03 E0= -.33824037E+03  d E =-.529158E-01
quench:  g(F)=  0.000E+00 g(S)=  0.000E+00 dE (1.order)= 0.000E+00
 bond charge predicted
       N       E                     dE             d eps       ncg     rms          rms(c)
DAV:   1    -0.338298904899E+03   -0.58283E-01   -0.50881E-01  6272   0.134E+00    0.276E-01
DAV:   2    -0.338298572948E+03    0.33195E-03   -0.33739E-02  7408   0.369E-01    0.171E-01
DAV:   3    -0.338297106250E+03    0.14667E-02   -0.46958E-03  7248   0.140E-01    0.482E-02
DAV:   4    -0.338297129256E+03   -0.23006E-04   -0.11271E-03  7160   0.617E-02    0.260E-02
DAV:   5    -0.338297109660E+03    0.19596E-04   -0.72516E-05  7152   0.180E-02    0.122E-02
DAV:   6    -0.338297104816E+03    0.48445E-05   -0.18009E-05  4056   0.838E-03
   4 F= -.33829710E+03 E0= -.33829697E+03  d E =-.564913E-01
quench:  g(F)=  0.000E+00 g(S)=  0.000E+00 dE (1.order)= 0.000E+00
 bond charge predicted
       N       E                     dE             d eps       ncg     rms          rms(c)
DAV:   1    -0.338347232570E+03   -0.50123E-01   -0.66522E-01  6160   0.155E+00    0.218E-01
DAV:   2    -0.338350704486E+03   -0.34719E-02   -0.42062E-02  7360   0.412E-01    0.150E-01
DAV:   3    -0.338350225724E+03    0.47876E-03   -0.14516E-03  7288   0.909E-02    0.711E-02
DAV:   4    -0.338350203437E+03    0.22287E-04   -0.61883E-04  7216   0.446E-02    0.189E-02
DAV:   5    -0.338350201603E+03    0.18341E-05   -0.68751E-05  7080   0.181E-02
   5 F= -.33835020E+03 E0= -.33835007E+03  d E =-.530968E-01
quench:  g(F)=  0.000E+00 g(S)=  0.000E+00 dE (1.order)= 0.000E+00
 bond charge predicted
       N       E                     dE             d eps       ncg     rms          rms(c)
DAV:   1    -0.338388100069E+03   -0.37897E-01   -0.64206E-01  6240   0.154E+00    0.212E-01
DAV:   2    -0.338391404109E+03   -0.33040E-02   -0.38643E-02  7344   0.401E-01    0.148E-01
DAV:   3    -0.338391023567E+03    0.38054E-03   -0.13539E-03  7208   0.902E-02    0.706E-02
DAV:   4    -0.338391028596E+03   -0.50293E-05   -0.65649E-04  7288   0.468E-02    0.187E-02
DAV:   5    -0.338391022084E+03    0.65123E-05   -0.81708E-05  7128   0.200E-02
   6 F= -.33839102E+03 E0= -.33839089E+03  d E =-.408205E-01
quench:  g(F)=  0.000E+00 g(S)=  0.000E+00 dE (1.order)= 0.000E+00
 bond charge predicted
       N       E                     dE             d eps       ncg     rms          rms(c)
DAV:   1    -0.338416544628E+03   -0.25516E-01   -0.62915E-01  6216   0.154E+00    0.206E-01
DAV:   2    -0.338419740225E+03   -0.31956E-02   -0.35510E-02  7360   0.384E-01    0.143E-01
DAV:   3    -0.338419509062E+03    0.23116E-03   -0.10434E-03  7312   0.810E-02    0.716E-02
DAV:   4    -0.338419519367E+03   -0.10305E-04   -0.48191E-04  7240   0.406E-02    0.166E-02
DAV:   5    -0.338419514097E+03    0.52695E-05   -0.64395E-05  7016   0.181E-02
   7 F= -.33841951E+03 E0= -.33841938E+03  d E =-.284920E-01
quench:  g(F)=  0.000E+00 g(S)=  0.000E+00 dE (1.order)= 0.000E+00
 bond charge predicted
       N       E                     dE             d eps       ncg     rms          rms(c)
DAV:   1    -0.338431209461E+03   -0.11690E-01   -0.46497E-01  6152   0.133E+00    0.169E-01
DAV:   2    -0.338433682560E+03   -0.24731E-02   -0.26380E-02  7336   0.332E-01    0.125E-01
DAV:   3    -0.338433478790E+03    0.20377E-03   -0.70910E-04  7248   0.661E-02    0.665E-02
DAV:   4    -0.338433452952E+03    0.25838E-04   -0.42036E-04  7176   0.394E-02    0.121E-02
DAV:   5    -0.338433449135E+03    0.38168E-05   -0.68066E-05  7008   0.182E-02
   8 F= -.33843345E+03 E0= -.33843331E+03  d E =-.139350E-01
quench:  g(F)=  0.000E+00 g(S)=  0.000E+00 dE (1.order)= 0.000E+00
 bond charge predicted
       N       E                     dE             d eps       ncg     rms          rms(c)
DAV:   1    -0.338438627354E+03   -0.51744E-02   -0.67155E-02  6440   0.495E-01    0.648E-02
DAV:   2    -0.338439029621E+03   -0.40227E-03   -0.45612E-03  7200   0.135E-01    0.529E-02
DAV:   3    -0.338438962917E+03    0.66704E-04   -0.13012E-04  7160   0.274E-02    0.297E-02
DAV:   4    -0.338438943801E+03    0.19116E-04   -0.13563E-04  6984   0.225E-02    0.529E-03
DAV:   5    -0.338438944422E+03   -0.62046E-06   -0.25463E-05  4344   0.110E-02
   9 F= -.33843894E+03 E0= -.33843881E+03  d E =-.549529E-02
quench:  g(F)=  0.000E+00 g(S)=  0.000E+00 dE (1.order)= 0.000E+00
 bond charge predicted
       N       E                     dE             d eps       ncg     rms          rms(c)
DAV:   1    -0.338442718725E+03   -0.37749E-02   -0.38714E-02  6216   0.382E-01    0.535E-02
DAV:   2    -0.338442861423E+03   -0.14270E-03   -0.17280E-03  7376   0.869E-02    0.361E-02
DAV:   3    -0.338442850768E+03    0.10655E-04   -0.64750E-05  7112   0.189E-02    0.144E-02
DAV:   4    -0.338442851973E+03   -0.12048E-05   -0.16945E-05  4144   0.814E-03
  10 F= -.33844285E+03 E0= -.33844271E+03  d E =-.390755E-02
quench:  g(F)=  0.000E+00 g(S)=  0.000E+00 dE (1.order)= 0.000E+00
 bond charge predicted
       N       E                     dE             d eps       ncg     rms          rms(c)
DAV:   1    -0.338446917352E+03   -0.40666E-02   -0.53668E-02  6088   0.449E-01    0.670E-02
DAV:   2    -0.338447081708E+03   -0.16436E-03   -0.22830E-03  7368   0.102E-01    0.450E-02
DAV:   3    -0.338447053855E+03    0.27852E-04   -0.12967E-04  7160   0.256E-02    0.138E-02
DAV:   4    -0.338447056522E+03   -0.26671E-05   -0.30235E-05  4816   0.106E-02
  11 F= -.33844706E+03 E0= -.33844692E+03  d E =-.420455E-02
quench:  g(F)=  0.000E+00 g(S)=  0.000E+00 dE (1.order)= 0.000E+00
 bond charge predicted
       N       E                     dE             d eps       ncg     rms          rms(c)
DAV:   1    -0.338451062716E+03   -0.40089E-02   -0.66795E-02  6160   0.501E-01    0.752E-02
DAV:   2    -0.338451245482E+03   -0.18277E-03   -0.26800E-03  7376   0.110E-01    0.500E-02
DAV:   3    -0.338451216045E+03    0.29437E-04   -0.15801E-04  7248   0.276E-02    0.147E-02
DAV:   4    -0.338451218947E+03   -0.29017E-05   -0.30916E-05  4872   0.109E-02
  12 F= -.33845122E+03 E0= -.33845108E+03  d E =-.416242E-02
quench:  g(F)=  0.000E+00 g(S)=  0.000E+00 dE (1.order)= 0.000E+00
 bond charge predicted
       N       E                     dE             d eps       ncg     rms          rms(c)
DAV:   1    -0.338454805184E+03   -0.35891E-02   -0.78865E-02  6080   0.545E-01    0.769E-02
DAV:   2    -0.338455063506E+03   -0.25832E-03   -0.29848E-03  7344   0.118E-01    0.522E-02
DAV:   3    -0.338455046730E+03    0.16776E-04   -0.13113E-04  7184   0.261E-02    0.146E-02
DAV:   4    -0.338455049356E+03   -0.26262E-05   -0.23317E-05  4648   0.960E-03
  13 F= -.33845505E+03 E0= -.33845491E+03  d E =-.383041E-02
quench:  g(F)=  0.000E+00 g(S)=  0.000E+00 dE (1.order)= 0.000E+00
 bond charge predicted
       N       E                     dE             d eps       ncg     rms          rms(c)
DAV:   1    -0.338458112967E+03   -0.30662E-02   -0.90419E-02  6112   0.583E-01    0.824E-02
DAV:   2    -0.338458400994E+03   -0.28803E-03   -0.33247E-03  7336   0.125E-01    0.559E-02
DAV:   3    -0.338458384256E+03    0.16738E-04   -0.15398E-04  7184   0.278E-02    0.139E-02
DAV:   4    -0.338458387426E+03   -0.31701E-05   -0.22956E-05  4672   0.958E-03
  14 F= -.33845839E+03 E0= -.33845825E+03  d E =-.333807E-02
quench:  g(F)=  0.000E+00 g(S)=  0.000E+00 dE (1.order)= 0.000E+00
 bond charge predicted
       N       E                     dE             d eps       ncg     rms          rms(c)
DAV:   1    -0.338460490452E+03   -0.21062E-02   -0.98131E-02  6088   0.604E-01    0.843E-02
DAV:   2    -0.338460840483E+03   -0.35003E-03   -0.39592E-03  7328   0.135E-01    0.578E-02
DAV:   3    -0.338460817954E+03    0.22529E-04   -0.16440E-04  7184   0.289E-02    0.171E-02
DAV:   4    -0.338460822142E+03   -0.41886E-05   -0.26283E-05  4776   0.101E-02
  15 F= -.33846082E+03 E0= -.33846068E+03  d E =-.243472E-02
quench:  g(F)=  0.000E+00 g(S)=  0.000E+00 dE (1.order)= 0.000E+00
 bond charge predicted
       N       E                     dE             d eps       ncg     rms          rms(c)
DAV:   1    -0.338461088515E+03   -0.27056E-03   -0.48949E-02  6264   0.428E-01    0.519E-02
DAV:   2    -0.338461371854E+03   -0.28334E-03   -0.29317E-03  7304   0.109E-01    0.408E-02
DAV:   3    -0.338461351031E+03    0.20823E-04   -0.72595E-05  7080   0.201E-02    0.240E-02
DAV:   4    -0.338461344049E+03    0.69812E-05   -0.53096E-05  6584   0.145E-02
  16 F= -.33846134E+03 E0= -.33846120E+03  d E =-.521907E-03
quench:  g(F)=  0.000E+00 g(S)=  0.000E+00 dE (1.order)= 0.000E+00
 bond charge predicted
       N       E                     dE             d eps       ncg     rms          rms(c)
DAV:   1    -0.338461733595E+03   -0.38256E-03   -0.27647E-03  6672   0.957E-02    0.209E-02
DAV:   2    -0.338461734409E+03   -0.81382E-06   -0.21004E-04  6928   0.305E-02    0.148E-02
DAV:   3    -0.338461721304E+03    0.13105E-04   -0.45845E-05  6248   0.143E-02    0.206E-03
DAV:   4    -0.338461721795E+03   -0.49096E-06   -0.79732E-06  3448   0.583E-03
  17 F= -.33846172E+03 E0= -.33846158E+03  d E =-.377745E-03
quench:  g(F)=  0.000E+00 g(S)=  0.000E+00 dE (1.order)= 0.000E+00
 bond charge predicted
       N       E                     dE             d eps       ncg     rms          rms(c)
DAV:   1    -0.338461920696E+03   -0.19939E-03   -0.60806E-03  6576   0.145E-01    0.269E-02
DAV:   2    -0.338461936294E+03   -0.15598E-04   -0.42864E-04  7080   0.428E-02    0.198E-02
DAV:   3    -0.338461915028E+03    0.21265E-04   -0.62130E-05  6560   0.171E-02    0.242E-03
DAV:   4    -0.338461916248E+03   -0.12196E-05   -0.12299E-05  3520   0.686E-03
  18 F= -.33846192E+03 E0= -.33846177E+03  d E =-.194453E-03
quench:  g(F)=  0.000E+00 g(S)=  0.000E+00 dE (1.order)= 0.000E+00
 bond charge predicted
       N       E                     dE             d eps       ncg     rms          rms(c)
DAV:   1    -0.338462009490E+03   -0.94462E-04   -0.29175E-03  6144   0.102E-01    0.171E-02
DAV:   2    -0.338462014241E+03   -0.47513E-05   -0.13017E-04  7384   0.242E-02    0.109E-02
DAV:   3    -0.338462011372E+03    0.28694E-05   -0.10448E-05  3712   0.703E-03
  19 F= -.33846201E+03 E0= -.33846186E+03  d E =-.951239E-04
quench:  g(F)=  0.000E+00 g(S)=  0.000E+00 dE (1.order)= 0.000E+00
 bond charge predicted
       N       E                     dE             d eps       ncg     rms          rms(c)
DAV:   1    -0.338462207007E+03   -0.19277E-03   -0.49623E-03  6144   0.133E-01    0.258E-02
DAV:   2    -0.338462206444E+03    0.56253E-06   -0.21671E-04  7368   0.317E-02    0.161E-02
DAV:   3    -0.338462198505E+03    0.79395E-05   -0.30917E-05  4936   0.116E-02
  20 F= -.33846220E+03 E0= -.33846203E+03  d E =-.187133E-03
quench:  g(F)=  0.000E+00 g(S)=  0.000E+00 dE (1.order)= 0.000E+00
 bond charge predicted
       N       E                     dE             d eps       ncg     rms          rms(c)
DAV:   1    -0.338462513190E+03   -0.30675E-03   -0.68257E-03  6144   0.157E-01    0.309E-02
DAV:   2    -0.338462509134E+03    0.40559E-05   -0.28767E-04  7368   0.367E-02    0.192E-02
DAV:   3    -0.338462497485E+03    0.11649E-04   -0.49742E-05  6672   0.140E-02    0.387E-03
DAV:   4    -0.338462498024E+03   -0.53883E-06   -0.72910E-06  3544   0.568E-03
  21 F= -.33846250E+03 E0= -.33846232E+03  d E =-.299519E-03
quench:  g(F)=  0.000E+00 g(S)=  0.000E+00 dE (1.order)= 0.000E+00
 reached required accuracy - stopping structural energy minimisation
 writing wavefunctions
