<?xml version="1.0" encoding="ISO-8859-1"?>
<modeling>
 <generator>
  <i name="program" type="string">vasp </i>
  <i name="version" type="string">5.4.1  </i>
  <i name="subversion" type="string">05Feb16 (build Nov 22 2018 20:17:51) complex                          parallel </i>
  <i name="platform" type="string">IFC91_ompi </i>
  <i name="date" type="string">2018 11 26 </i>
  <i name="time" type="string">15:53:44 </i>
 </generator>
 <incar>
  <i type="string" name="SYSTEM">Pt H20</i>
  <i type="string" name="PREC">normal</i>
  <i type="string" name="ALGO">Fast</i>
  <i type="int" name="NELM">   400</i>
  <i type="int" name="IBRION">     3</i>
  <i name="EDIFF">      0.00001000</i>
  <i name="EDIFFG">     -0.02000000</i>
  <i type="int" name="NSW">   500</i>
  <i type="int" name="ISIF">     2</i>
  <i name="ENCUT">    500.00000000</i>
  <i name="POTIM">      0.00000000</i>
  <i type="string" name="LREAL">Auto</i>
  <i type="int" name="ISMEAR">     0</i>
  <i name="SIGMA">      0.01000000</i>
  <v type="int" name="KPOINT_BSE">    -1     0     0     0</v>
  <i type="int" name="NELM">   400</i>
  <i type="logical" name="LDIPOL"> T  </i>
  <i type="int" name="IDIPOL">     3</i>
 </incar>
 <kpoints>
  <generation param="Gamma">
   <v type="int" name="divisions">       8        8        1 </v>
   <v name="usershift">      0.00000000       0.00000000       0.00000000 </v>
   <v name="genvec1">      0.12500000       0.00000000       0.00000000 </v>
   <v name="genvec2">      0.00000000       0.12500000       0.00000000 </v>
   <v name="genvec3">      0.00000000       0.00000000       1.00000000 </v>
   <v name="shift">      0.00000000       0.00000000       0.00000000 </v>
  </generation>
  <varray name="kpointlist" >
   <v>       0.00000000       0.00000000       0.00000000 </v>
   <v>       0.12500000       0.00000000       0.00000000 </v>
   <v>       0.25000000       0.00000000       0.00000000 </v>
   <v>       0.37500000       0.00000000       0.00000000 </v>
   <v>       0.50000000       0.00000000       0.00000000 </v>
   <v>       0.00000000       0.12500000       0.00000000 </v>
   <v>       0.12500000       0.12500000       0.00000000 </v>
   <v>       0.25000000       0.12500000       0.00000000 </v>
   <v>       0.37500000       0.12500000       0.00000000 </v>
   <v>       0.50000000       0.12500000       0.00000000 </v>
   <v>       0.00000000       0.25000000       0.00000000 </v>
   <v>       0.12500000       0.25000000       0.00000000 </v>
   <v>       0.25000000       0.25000000       0.00000000 </v>
   <v>       0.37500000       0.25000000       0.00000000 </v>
   <v>       0.50000000       0.25000000       0.00000000 </v>
   <v>       0.00000000       0.37500000       0.00000000 </v>
   <v>       0.12500000       0.37500000       0.00000000 </v>
   <v>       0.25000000       0.37500000       0.00000000 </v>
   <v>       0.37500000       0.37500000       0.00000000 </v>
   <v>       0.50000000       0.37500000       0.00000000 </v>
   <v>       0.00000000       0.50000000       0.00000000 </v>
   <v>       0.12500000       0.50000000       0.00000000 </v>
   <v>       0.25000000       0.50000000       0.00000000 </v>
   <v>       0.37500000       0.50000000       0.00000000 </v>
   <v>       0.50000000       0.50000000       0.00000000 </v>
  </varray>
  <varray name="weights" >
   <v>       0.01562500 </v>
   <v>       0.03125000 </v>
   <v>       0.03125000 </v>
   <v>       0.03125000 </v>
   <v>       0.01562500 </v>
   <v>       0.03125000 </v>
   <v>       0.06250000 </v>
   <v>       0.06250000 </v>
   <v>       0.06250000 </v>
   <v>       0.03125000 </v>
   <v>       0.03125000 </v>
   <v>       0.06250000 </v>
   <v>       0.06250000 </v>
   <v>       0.06250000 </v>
   <v>       0.03125000 </v>
   <v>       0.03125000 </v>
   <v>       0.06250000 </v>
   <v>       0.06250000 </v>
   <v>       0.06250000 </v>
   <v>       0.03125000 </v>
   <v>       0.01562500 </v>
   <v>       0.03125000 </v>
   <v>       0.03125000 </v>
   <v>       0.03125000 </v>
   <v>       0.01562500 </v>
  </varray>
 </kpoints>
 <parameters>
  <separator name="general" >
   <i type="string" name="SYSTEM">Pt H20</i>
   <i type="logical" name="LCOMPAT"> F  </i>
  </separator>
  <separator name="electronic" >
   <i type="string" name="PREC">normal</i>
   <i name="ENMAX">    500.00000000</i>
   <i name="ENAUG">    416.23000000</i>
   <i name="EDIFF">      0.00001000</i>
   <i type="int" name="IALGO">    68</i>
   <i type="int" name="IWAVPR">    11</i>
   <i type="int" name="NBANDS">   200</i>
   <i name="NELECT">    330.00000000</i>
   <i type="int" name="TURBO">     0</i>
   <i type="int" name="IRESTART">     0</i>
   <i type="int" name="NREBOOT">     0</i>
   <i type="int" name="NMIN">     0</i>
   <i name="EREF">      0.00000000</i>
   <separator name="electronic smearing" >
    <i type="int" name="ISMEAR">     0</i>
    <i name="SIGMA">      0.01000000</i>
    <i name="KSPACING">      0.50000000</i>
    <i type="logical" name="KGAMMA"> T  </i>
   </separator>
   <separator name="electronic projectors" >
    <i type="logical" name="LREAL"> T  </i>
    <v name="ROPT">     -0.00050000</v>
    <i type="int" name="LMAXPAW">  -100</i>
    <i type="int" name="LMAXMIX">     2</i>
    <i type="logical" name="NLSPLINE"> F  </i>
   </separator>
   <separator name="electronic startup" >
    <i type="int" name="ISTART">     0</i>
    <i type="int" name="ICHARG">     2</i>
    <i type="int" name="INIWAV">     1</i>
   </separator>
   <separator name="electronic spin" >
    <i type="int" name="ISPIN">     1</i>
    <i type="logical" name="LNONCOLLINEAR"> F  </i>
    <v name="MAGMOM">      1.00000000      1.00000000      1.00000000      1.00000000      1.00000000      1.00000000      1.00000000      1.00000000      1.00000000      1.00000000      1.00000000      1.00000000      1.00000000      1.00000000      1.00000000      1.00000000      1.00000000      1.00000000      1.00000000      1.00000000
      1.00000000      1.00000000      1.00000000      1.00000000      1.00000000      1.00000000      1.00000000      1.00000000      1.00000000      1.00000000      1.00000000      1.00000000      1.00000000</v>
    <i name="NUPDOWN">     -1.00000000</i>
    <i type="logical" name="LSORBIT"> F  </i>
    <v name="SAXIS">      0.00000000      0.00000000      1.00000000</v>
    <i type="logical" name="LSPIRAL"> F  </i>
    <v name="QSPIRAL">      0.00000000      0.00000000      0.00000000</v>
    <i type="logical" name="LZEROZ"> F  </i>
   </separator>
   <separator name="electronic exchange-correlation" >
    <i type="logical" name="LASPH"> F  </i>
    <i type="logical" name="LMETAGGA"> F  </i>
   </separator>
   <separator name="electronic convergence" >
    <i type="int" name="NELM">   400</i>
    <i type="int" name="NELMDL">    -5</i>
    <i type="int" name="NELMIN">     2</i>
    <i name="ENINI">    500.00000000</i>
    <separator name="electronic convergence detail" >
     <i type="logical" name="LDIAG"> T  </i>
     <i type="logical" name="LSUBROT"> F  </i>
     <i name="WEIMIN">      0.00100000</i>
     <i name="EBREAK">      0.00000001</i>
     <i name="DEPER">      0.30000000</i>
     <i type="int" name="NRMM">     4</i>
     <i name="TIME">      0.40000000</i>
    </separator>
   </separator>
   <separator name="electronic mixer" >
    <i name="AMIX">      0.40000000</i>
    <i name="BMIX">      1.00000000</i>
    <i name="AMIN">      0.10000000</i>
    <i name="AMIX_MAG">      1.60000000</i>
    <i name="BMIX_MAG">      1.00000000</i>
    <separator name="electronic mixer details" >
     <i type="int" name="IMIX">     4</i>
     <i type="logical" name="MIXFIRST"> F  </i>
     <i type="int" name="MAXMIX">   -45</i>
     <i name="WC">    100.00000000</i>
     <i type="int" name="INIMIX">     1</i>
     <i type="int" name="MIXPRE">     1</i>
     <i type="int" name="MREMOVE">     5</i>
    </separator>
   </separator>
   <separator name="electronic dipolcorrection" >
    <i type="logical" name="LDIPOL"> T  </i>
    <i type="logical" name="LMONO"> F  </i>
    <i type="int" name="IDIPOL">     3</i>
    <i name="EPSILON">      1.00000000</i>
    <v name="DIPOL">   -100.00000000   -100.00000000   -100.00000000</v>
    <i name="EFIELD">      0.00000000</i>
   </separator>
  </separator>
  <separator name="grids" >
   <i type="int" name="NGX">    48</i>
   <i type="int" name="NGY">    48</i>
   <i type="int" name="NGZ">   140</i>
   <i type="int" name="NGXF">    96</i>
   <i type="int" name="NGYF">    96</i>
   <i type="int" name="NGZF">   280</i>
   <i type="logical" name="ADDGRID"> F  </i>
  </separator>
  <separator name="ionic" >
   <i type="int" name="NSW">   500</i>
   <i type="int" name="IBRION">     3</i>
   <i type="int" name="ISIF">     2</i>
   <i name="PSTRESS">      0.00000000</i>
   <i name="EDIFFG">     -0.02000000</i>
   <i type="int" name="NFREE">     0</i>
   <i name="POTIM">      0.00000000</i>
   <i name="SMASS">     -3.00000000</i>
   <i name="SCALEE">      1.00000000</i>
  </separator>
  <separator name="ionic md" >
   <i name="TEBEG">      0.00010000</i>
   <i name="TEEND">      0.00010000</i>
   <i type="int" name="NBLOCK">     1</i>
   <i type="int" name="KBLOCK">   500</i>
   <i type="int" name="NPACO">   256</i>
   <i name="APACO">     16.00000000</i>
  </separator>
  <separator name="symmetry" >
   <i type="int" name="ISYM">     2</i>
   <i name="SYMPREC">      0.00001000</i>
  </separator>
  <separator name="dos" >
   <i type="logical" name="LORBIT"> F  </i>
   <v name="RWIGS">     -1.00000000</v>
   <i type="int" name="NEDOS">   301</i>
   <i name="EMIN">     10.00000000</i>
   <i name="EMAX">    -10.00000000</i>
   <i name="EFERMI">      0.00000000</i>
  </separator>
  <separator name="writing" >
   <i type="int" name="NWRITE">     2</i>
   <i type="logical" name="LWAVE"> T  </i>
   <i type="logical" name="LCHARG"> T  </i>
   <i type="logical" name="LPARD"> F  </i>
   <i type="logical" name="LVTOT"> F  </i>
   <i type="logical" name="LVHAR"> F  </i>
   <i type="logical" name="LELF"> F  </i>
   <i type="logical" name="LOPTICS"> F  </i>
   <v name="STM">      0.00000000      0.00000000      0.00000000      0.00000000      0.00000000      0.00000000      0.00000000</v>
  </separator>
  <separator name="performance" >
   <i type="int" name="NPAR">     8</i>
   <i type="int" name="NSIM">     4</i>
   <i type="int" name="NBLK">    -1</i>
   <i type="logical" name="LPLANE"> T  </i>
   <i type="logical" name="LSCALAPACK"> T  </i>
   <i type="logical" name="LSCAAWARE"> F  </i>
   <i type="logical" name="LSCALU"> F  </i>
   <i type="logical" name="LASYNC"> F  </i>
   <i type="logical" name="LORBITALREAL"> F  </i>
  </separator>
  <separator name="miscellaneous" >
   <i type="int" name="IDIOT">     3</i>
   <i type="logical" name="LMUSIC"> F  </i>
   <v name="POMASS">    106.42000000</v>
   <v name="DARWINR">      0.00000000</v>
   <v name="DARWINV">      1.00000000</v>
   <i type="logical" name="LCORR"> T  </i>
  </separator>
  <i type="logical" name="GGA_COMPAT"> T  </i>
  <i type="logical" name="LBERRY"> F  </i>
  <i type="int" name="ICORELEVEL">     0</i>
  <i type="logical" name="LDAU"> F  </i>
  <i type="int" name="I_CONSTRAINED_M">     0</i>
  <separator name="electronic exchange-correlation" >
   <i type="string" name="GGA">--</i>
   <i type="int" name="VOSKOWN">     0</i>
   <i type="logical" name="LHFCALC"> F  </i>
   <i type="string" name="PRECFOCK"></i>
   <i type="logical" name="LSYMGRAD"> F  </i>
   <i type="logical" name="LHFONE"> F  </i>
   <i type="logical" name="LRHFCALC"> F  </i>
   <i type="logical" name="LTHOMAS"> F  </i>
   <i type="logical" name="LMODELHF"> F  </i>
   <i name="ENCUT4O">     -1.00000000</i>
   <i type="int" name="EXXOEP">     0</i>
   <i type="int" name="FOURORBIT">     0</i>
   <i name="AEXX">      0.00000000</i>
   <i name="HFALPHA">      0.00000000</i>
   <i name="MCALPHA">      0.00000000</i>
   <i name="ALDAX">      1.00000000</i>
   <i name="AGGAX">      1.00000000</i>
   <i name="ALDAC">      1.00000000</i>
   <i name="AGGAC">      1.00000000</i>
   <i type="int" name="NKREDX">     1</i>
   <i type="int" name="NKREDY">     1</i>
   <i type="int" name="NKREDZ">     1</i>
   <i type="logical" name="SHIFTRED"> F  </i>
   <i type="logical" name="ODDONLY"> F  </i>
   <i type="logical" name="EVENONLY"> F  </i>
   <i type="int" name="LMAXFOCK">     0</i>
   <i type="int" name="NMAXFOCKAE">     0</i>
   <i type="logical" name="LFOCKAEDFT"> F  </i>
   <i name="HFSCREEN">      0.00000000</i>
   <i name="HFSCREENC">      0.00000000</i>
   <i type="int" name="NBANDSGWLOW">     0</i>
  </separator>
  <separator name="vdW DFT" >
   <i type="logical" name="LUSE_VDW"> F  </i>
   <i name="Zab_VDW">     -0.84910000</i>
   <i name="PARAM1">      0.12340000</i>
   <i name="PARAM2">      1.00000000</i>
   <i name="PARAM3">      0.00000000</i>
  </separator>
  <separator name="model GW" >
   <i type="int" name="MODEL_GW">     0</i>
   <i name="MODEL_EPS0">     27.24113349</i>
   <i name="MODEL_ALPHA">      1.00000000</i>
  </separator>
  <separator name="linear response parameters" >
   <i type="logical" name="LEPSILON"> F  </i>
   <i type="logical" name="LRPA"> F  </i>
   <i type="logical" name="LNABLA"> F  </i>
   <i type="logical" name="LVEL"> F  </i>
   <i type="int" name="KINTER">     0</i>
   <i name="CSHIFT">      0.10000000</i>
   <i name="OMEGAMAX">     -1.00000000</i>
   <i name="DEG_THRESHOLD">      0.00200000</i>
  </separator>
  <separator name="orbital magnetization" >
   <i type="logical" name="NUCIND"> F  </i>
   <v name="MAGPOS">      0.00000000      0.00000000      0.00000000</v>
   <i type="logical" name="LNICSALL"> T  </i>
   <i type="logical" name="ORBITALMAG"> F  </i>
   <i type="logical" name="LMAGBLOCH"> F  </i>
   <i type="logical" name="LCHIMAG"> F  </i>
   <i type="logical" name="LGAUGE"> T  </i>
   <i type="int" name="MAGATOM">     0</i>
   <v name="MAGDIPOL">      0.00000000      0.00000000      0.00000000</v>
   <v name="AVECCONST">      0.00000000      0.00000000      0.00000000</v>
  </separator>
  <separator name="response functions" >
   <i type="logical" name="LADDER"> F  </i>
   <i type="logical" name="LFXC"> F  </i>
   <i type="logical" name="LHARTREE"> T  </i>
   <i type="int" name="IBSE">     0</i>
   <v type="int" name="KPOINT">    -1     0     0     0</v>
   <i type="logical" name="LTCTE"> F  </i>
   <i type="logical" name="LTETE"> F  </i>
   <i type="logical" name="LTRIPLET"> F  </i>
   <i type="logical" name="LFXCEPS"> F  </i>
   <i type="logical" name="LFXHEG"> F  </i>
   <i type="int" name="NATURALO">     0</i>
   <i type="logical" name="L2ORDER"> F  </i>
   <i type="logical" name="LUSEW"> F  </i>
   <i name="ENCUTGW">     -2.00000000</i>
   <i name="ENCUTGWSOFT">     -2.00000000</i>
   <i name="ENCUTLF">     -1.00000000</i>
   <i type="int" name="LMAXMP2">    -1</i>
   <i name="SCISSOR">      0.00000000</i>
   <i type="int" name="NOMEGA">     0</i>
   <i type="int" name="NOMEGAR">     0</i>
   <i type="int" name="NBANDSGW">    -1</i>
   <i type="int" name="NBANDSO">    -1</i>
   <i type="int" name="NBANDSV">    -1</i>
   <i type="int" name="NELM">   400</i>
   <i type="int" name="NELMHF">     1</i>
   <i type="int" name="DIM">     3</i>
   <i type="int" name="ANTIRES">     0</i>
   <i name="OMEGAMAX">    -30.00000000</i>
   <i name="OMEGAMIN">    -30.00000000</i>
   <i name="OMEGATL">   -200.00000000</i>
   <i type="int" name="OMEGAGRID">     0</i>
   <i name="CSHIFT">     -0.10000000</i>
   <i type="logical" name="SELFENERGY"> F  </i>
   <i type="logical" name="LSPECTRAL"> F  </i>
   <i type="logical" name="LSPECTRALGW"> F  </i>
   <i type="logical" name="LSINGLES"> F  </i>
   <i type="logical" name="LFERMIGW"> F  </i>
   <i type="logical" name="ODDONLYGW"> F  </i>
   <i type="logical" name="EVENONLYGW"> F  </i>
   <i type="int" name="NKREDLFX">     1</i>
   <i type="int" name="NKREDLFY">     1</i>
   <i type="int" name="NKREDLFZ">     1</i>
   <i type="int" name="MAXMEM">  1800</i>
   <i type="int" name="TELESCOPE">     0</i>
   <i type="int" name="TAUPAR">     1</i>
   <i type="int" name="OMEGAPAR">    -1</i>
   <i name="LAMBDA">      1.00000000</i>
  </separator>
  <separator name="External order field" >
   <i name="OFIELD_KAPPA">      0.00000000</i>
   <v name="OFIELD_K">      0.00000000      0.00000000      0.00000000</v>
   <i name="OFIELD_Q6_NEAR">      0.00000000</i>
   <i name="OFIELD_Q6_FAR">      0.00000000</i>
   <i name="OFIELD_A">      0.00000000</i>
  </separator>
 </parameters>
 <atominfo>
  <atoms>      33 </atoms>
  <types>       1 </types>
  <array name="atoms" >
   <dimension dim="1">ion</dimension>
   <field type="string">element</field>
   <field type="int">atomtype</field>
   <set>
    <rc><c>Pd</c><c>   1</c></rc>
    <rc><c>Pd</c><c>   1</c></rc>
    <rc><c>Pd</c><c>   1</c></rc>
    <rc><c>Pd</c><c>   1</c></rc>
    <rc><c>Pd</c><c>   1</c></rc>
    <rc><c>Pd</c><c>   1</c></rc>
    <rc><c>Pd</c><c>   1</c></rc>
    <rc><c>Pd</c><c>   1</c></rc>
    <rc><c>Pd</c><c>   1</c></rc>
    <rc><c>Pd</c><c>   1</c></rc>
    <rc><c>Pd</c><c>   1</c></rc>
    <rc><c>Pd</c><c>   1</c></rc>
    <rc><c>Pd</c><c>   1</c></rc>
    <rc><c>Pd</c><c>   1</c></rc>
    <rc><c>Pd</c><c>   1</c></rc>
    <rc><c>Pd</c><c>   1</c></rc>
    <rc><c>Pd</c><c>   1</c></rc>
    <rc><c>Pd</c><c>   1</c></rc>
    <rc><c>Pd</c><c>   1</c></rc>
    <rc><c>Pd</c><c>   1</c></rc>
    <rc><c>Pd</c><c>   1</c></rc>
    <rc><c>Pd</c><c>   1</c></rc>
    <rc><c>Pd</c><c>   1</c></rc>
    <rc><c>Pd</c><c>   1</c></rc>
    <rc><c>Pd</c><c>   1</c></rc>
    <rc><c>Pd</c><c>   1</c></rc>
    <rc><c>Pd</c><c>   1</c></rc>
    <rc><c>Pd</c><c>   1</c></rc>
    <rc><c>Pd</c><c>   1</c></rc>
    <rc><c>Pd</c><c>   1</c></rc>
    <rc><c>Pd</c><c>   1</c></rc>
    <rc><c>Pd</c><c>   1</c></rc>
    <rc><c>Pd</c><c>   1</c></rc>
   </set>
  </array>
  <array name="atomtypes" >
   <dimension dim="1">type</dimension>
   <field type="int">atomspertype</field>
   <field type="string">element</field>
   <field>mass</field>
   <field>valence</field>
   <field type="string">pseudopotential</field>
   <set>
    <rc><c>  33</c><c>Pd</c><c>    106.42000000</c><c>     10.00000000</c><c> PAW_GGA Pd 05Jan2001                   </c></rc>
   </set>
  </array>
 </atominfo>
 <structure name="initialpos" >
  <crystal>
   <varray name="basis" >
    <v>       7.91200018       0.00000000       0.00000000 </v>
    <v>       0.00000000       7.91200018       0.00000000 </v>
    <v>       0.00000000       0.00000000      23.93400002 </v>
   </varray>
   <i name="volume">   1498.26234176 </i>
   <varray name="rec_basis" >
    <v>       0.12639029       0.00000000       0.00000000 </v>
    <v>       0.00000000       0.12639029       0.00000000 </v>
    <v>       0.00000000       0.00000000       0.04178157 </v>
   </varray>
  </crystal>
  <varray name="positions" >
   <v>       0.00000000       0.25000000       0.00000000 </v>
   <v>       0.25000000       0.00000000       0.00000000 </v>
   <v>       0.50000000       0.25000000       0.00000000 </v>
   <v>       0.75000000       0.00000000       0.00000000 </v>
   <v>       0.00000000       0.75000000       0.00000000 </v>
   <v>       0.25000000       0.50000000       0.00000000 </v>
   <v>       0.50000000       0.75000000       0.00000000 </v>
   <v>       0.75000000       0.50000000       0.00000000 </v>
   <v>       0.00000000       0.00000000       0.08264000 </v>
   <v>       0.25000000       0.25000000       0.08264000 </v>
   <v>       0.50000000       0.00000000       0.08264000 </v>
   <v>       0.75000000       0.25000000       0.08264000 </v>
   <v>       0.00000000       0.50000000       0.08264000 </v>
   <v>       0.25000000       0.75000000       0.08264000 </v>
   <v>       0.50000000       0.50000000       0.08264000 </v>
   <v>       0.75000000       0.75000000       0.08264000 </v>
   <v>       0.00000000       0.25000000       0.16424894 </v>
   <v>       0.24931389       0.00033557       0.16450661 </v>
   <v>       0.50000000       0.25000000       0.16537521 </v>
   <v>       0.75068611       0.00033557       0.16450661 </v>
   <v>       0.00000000       0.75000000       0.16474537 </v>
   <v>       0.24931389       0.49966443       0.16450661 </v>
   <v>       0.50000000       0.75000000       0.16557258 </v>
   <v>       0.75068611       0.49966443       0.16450661 </v>
   <v>       0.00000000       0.00135815       0.24644561 </v>
   <v>       0.24485766       0.25000000       0.24637095 </v>
   <v>       0.50000000       0.00308403       0.24614695 </v>
   <v>       0.75514234       0.25000000       0.24637095 </v>
   <v>       0.00000000       0.49864185       0.24644561 </v>
   <v>       0.24313178       0.75000000       0.24622161 </v>
   <v>       0.75686822       0.75000000       0.24622161 </v>
   <v>       0.50000000       0.49691597       0.24614695 </v>
   <v>       0.50000000       0.91666667       0.31688541 </v>
  </varray>
  <varray name="selective"  type="logical" >
   <v type="logical" >  F  F  F </v>
   <v type="logical" >  F  F  F </v>
   <v type="logical" >  F  F  F </v>
   <v type="logical" >  F  F  F </v>
   <v type="logical" >  F  F  F </v>
   <v type="logical" >  F  F  F </v>
   <v type="logical" >  F  F  F </v>
   <v type="logical" >  F  F  F </v>
   <v type="logical" >  F  F  F </v>
   <v type="logical" >  F  F  F </v>
   <v type="logical" >  F  F  F </v>
   <v type="logical" >  F  F  F </v>
   <v type="logical" >  F  F  F </v>
   <v type="logical" >  F  F  F </v>
   <v type="logical" >  F  F  F </v>
   <v type="logical" >  F  F  F </v>
   <v type="logical" >  T  T  T </v>
   <v type="logical" >  T  T  T </v>
   <v type="logical" >  T  T  T </v>
   <v type="logical" >  T  T  T </v>
   <v type="logical" >  T  T  T </v>
   <v type="logical" >  T  T  T </v>
   <v type="logical" >  T  T  T </v>
   <v type="logical" >  T  T  T </v>
   <v type="logical" >  T  T  T </v>
   <v type="logical" >  T  T  T </v>
   <v type="logical" >  T  T  T </v>
   <v type="logical" >  T  T  T </v>
   <v type="logical" >  T  T  T </v>
   <v type="logical" >  T  T  T </v>
   <v type="logical" >  T  T  T </v>
   <v type="logical" >  T  T  T </v>
   <v type="logical" >  T  T  T </v>
  </varray>
  <nose>
   <v>      -3.00000000       0.00000000       0.00010000       0.00010000 </v>
  </nose>
 </structure>
 <calculation>
  <scstep>
   <time name="dav">   72.77   72.94</time>
   <time name="total">   73.09   73.26</time>
   <dipole>
    <v name="dipole">      0.00000000       0.00000000       0.00013030 </v>
    <i name="Tr[quadrupol]">  -3949.85591620 </i>
    <i name="Echarged">      0.00000000 </i>
    <i name="Edipol_quadrupol">      0.00000000 </i>
    <i name="Eion">      0.00000000 </i>
   </dipole>
   <energy>
    <i name="alphaZ">    987.04385835 </i>
    <i name="ewald"> 112587.65690134 </i>
    <i name="hartreedc">-140026.99430675 </i>
    <i name="XCdc">   -993.10161816 </i>
    <i name="pawpsdc">  22357.04723402 </i>
    <i name="pawaedc"> -20298.76097258 </i>
    <i name="eentropy">     -0.00085878 </i>
    <i name="bandstr">   1476.53643082 </i>
    <i name="atom">  26755.39719902 </i>
    <i name="e_fr_energy">   2844.82386728 </i>
    <i name="e_wo_entrp">   2844.82472606 </i>
    <i name="e_0_energy">   2844.82429667 </i>
   </energy>
  </scstep>
  <scstep>
   <time name="dav">   73.42   73.60</time>
   <time name="total">   73.43   73.60</time>
   <dipole>
    <v name="dipole">      0.00000000       0.00000000       0.00013030 </v>
    <i name="Tr[quadrupol]">  -3949.85591620 </i>
    <i name="Echarged">      0.00000000 </i>
    <i name="Edipol_quadrupol">      0.00000000 </i>
    <i name="Eion">      0.00000000 </i>
   </dipole>
   <energy>
    <i name="e_fr_energy">     74.51143469 </i>
    <i name="e_wo_entrp">     74.51266159 </i>
    <i name="e_0_energy">     74.51204814 </i>
   </energy>
  </scstep>
  <scstep>
   <time name="dav">   81.53   81.72</time>
   <time name="total">   81.53   81.73</time>
   <dipole>
    <v name="dipole">      0.00000000       0.00000000       0.00013030 </v>
    <i name="Tr[quadrupol]">  -3949.85591620 </i>
    <i name="Echarged">      0.00000000 </i>
    <i name="Edipol_quadrupol">      0.00000000 </i>
    <i name="Eion">      0.00000000 </i>
   </dipole>
   <energy>
    <i name="e_fr_energy">   -153.40176620 </i>
    <i name="e_wo_entrp">   -153.39883814 </i>
    <i name="e_0_energy">   -153.40030217 </i>
   </energy>
  </scstep>
  <scstep>
   <time name="dav">   83.58   83.77</time>
   <time name="total">   83.58   83.78</time>
   <dipole>
    <v name="dipole">      0.00000000       0.00000000       0.00013030 </v>
    <i name="Tr[quadrupol]">  -3949.85591620 </i>
    <i name="Echarged">      0.00000000 </i>
    <i name="Edipol_quadrupol">      0.00000000 </i>
    <i name="Eion">      0.00000000 </i>
   </dipole>
   <energy>
    <i name="e_fr_energy">   -165.82601755 </i>
    <i name="e_wo_entrp">   -165.82112207 </i>
    <i name="e_0_energy">   -165.82356981 </i>
   </energy>
  </scstep>
  <scstep>
   <time name="dav">   85.12   85.32</time>
   <time name="total">   89.27   89.48</time>
   <dipole>
    <v name="dipole">      0.00000000       0.00000000       0.00013030 </v>
    <i name="Tr[quadrupol]">  -3949.85591620 </i>
    <i name="Echarged">      0.00000000 </i>
    <i name="Edipol_quadrupol">      0.00000000 </i>
    <i name="Eion">      0.00000000 </i>
   </dipole>
   <energy>
    <i name="e_fr_energy">   -166.07878909 </i>
    <i name="e_wo_entrp">   -166.07389944 </i>
    <i name="e_0_energy">   -166.07634427 </i>
   </energy>
  </scstep>
  <scstep>
   <time name="diag">   13.37   13.41</time>
   <time name="diis">   48.69   48.80</time>
   <time name="orth">    1.91    1.91</time>
   <time name="total">   68.51   68.67</time>
   <dipole>
    <v name="dipole">      0.00000000       0.00000000      -0.63373973 </v>
    <i name="Tr[quadrupol]">  -3953.69170681 </i>
    <i name="Echarged">      0.00000000 </i>
    <i name="Edipol_quadrupol">      0.00000000 </i>
    <i name="Eion">      0.00000000 </i>
   </dipole>
   <energy>
    <i name="e_fr_energy">   -166.54068321 </i>
    <i name="e_wo_entrp">   -166.53726470 </i>
    <i name="e_0_energy">   -166.53897395 </i>
   </energy>
  </scstep>
  <scstep>
   <time name="diag">   13.25   13.28</time>
   <time name="diis">   48.44   48.56</time>
   <time name="orth">    1.83    1.84</time>
   <time name="total">   68.10   68.26</time>
   <dipole>
    <v name="dipole">      0.00000000       0.00000000       0.91001018 </v>
    <i name="Tr[quadrupol]">  -3955.63848780 </i>
    <i name="Echarged">      0.00000000 </i>
    <i name="Edipol_quadrupol">      0.00000000 </i>
    <i name="Eion">      0.00000000 </i>
   </dipole>
   <energy>
    <i name="e_fr_energy">   -179.57298096 </i>
    <i name="e_wo_entrp">   -179.56993527 </i>
    <i name="e_0_energy">   -179.57145811 </i>
   </energy>
  </scstep>
  <scstep>
   <time name="diag">   13.16   13.20</time>
   <time name="diis">   48.61   48.72</time>
   <time name="orth">    1.99    2.00</time>
   <time name="total">   68.30   68.46</time>
   <dipole>
    <v name="dipole">      0.00000000       0.00000000      -0.03054971 </v>
    <i name="Tr[quadrupol]">  -3957.08633097 </i>
    <i name="Echarged">      0.00000000 </i>
    <i name="Edipol_quadrupol">      0.00000000 </i>
    <i name="Eion">      0.00000000 </i>
   </dipole>
   <energy>
    <i name="e_fr_energy">   -166.14414334 </i>
    <i name="e_wo_entrp">   -166.13944217 </i>
    <i name="e_0_energy">   -166.14179276 </i>
   </energy>
  </scstep>
  <scstep>
   <time name="diag">   13.21   13.24</time>
   <time name="diis">   48.66   48.77</time>
   <time name="orth">    1.95    1.95</time>
   <time name="total">   68.32   68.49</time>
   <dipole>
    <v name="dipole">      0.00000000       0.00000000      -0.19457314 </v>
    <i name="Tr[quadrupol]">  -3956.64072516 </i>
    <i name="Echarged">      0.00000000 </i>
    <i name="Edipol_quadrupol">      0.00000000 </i>
    <i name="Eion">      0.00000000 </i>
   </dipole>
   <energy>
    <i name="e_fr_energy">   -159.79929658 </i>
    <i name="e_wo_entrp">   -159.79471229 </i>
    <i name="e_0_energy">   -159.79700443 </i>
   </energy>
  </scstep>
  <scstep>
   <time name="diag">   13.20   13.23</time>
   <time name="diis">   48.95   49.07</time>
   <time name="orth">    1.91    1.92</time>
   <time name="total">   68.67   68.83</time>
   <dipole>
    <v name="dipole">      0.00000000       0.00000000      -0.19574388 </v>
    <i name="Tr[quadrupol]">  -3956.57164597 </i>
    <i name="Echarged">      0.00000000 </i>
    <i name="Edipol_quadrupol">      0.00000000 </i>
    <i name="Eion">      0.00000000 </i>
   </dipole>
   <energy>
    <i name="e_fr_energy">   -159.08790414 </i>
    <i name="e_wo_entrp">   -159.08333308 </i>
    <i name="e_0_energy">   -159.08561861 </i>
   </energy>
  </scstep>
  <scstep>
   <time name="diag">   12.98   13.01</time>
   <time name="diis">   48.79   48.91</time>
   <time name="orth">    1.91    1.92</time>
   <time name="total">   68.28   68.44</time>
   <dipole>
    <v name="dipole">      0.00000000       0.00000000      -0.21239005 </v>
    <i name="Tr[quadrupol]">  -3957.12358428 </i>
    <i name="Echarged">      0.00000000 </i>
    <i name="Edipol_quadrupol">      0.00000000 </i>
    <i name="Eion">      0.00000000 </i>
   </dipole>
   <energy>
    <i name="e_fr_energy">   -159.03934799 </i>
    <i name="e_wo_entrp">   -159.03342565 </i>
    <i name="e_0_energy">   -159.03638682 </i>
   </energy>
  </scstep>
  <scstep>
   <time name="diag">   13.02   13.05</time>
   <time name="diis">   49.16   49.27</time>
   <time name="orth">    1.85    1.85</time>
   <time name="total">   68.44   68.60</time>
   <dipole>
    <v name="dipole">      0.00000000       0.00000000      -0.25331808 </v>
    <i name="Tr[quadrupol]">  -3948.65629506 </i>
    <i name="Echarged">      0.00000000 </i>
    <i name="Edipol_quadrupol">      0.00000000 </i>
    <i name="Eion">      0.00000000 </i>
   </dipole>
   <energy>
    <i name="e_fr_energy">   -153.88790768 </i>
    <i name="e_wo_entrp">   -153.88217595 </i>
    <i name="e_0_energy">   -153.88504182 </i>
   </energy>
  </scstep>
  <scstep>
   <time name="diag">   12.84   12.87</time>
   <time name="diis">   49.85   49.97</time>
   <time name="orth">    1.79    1.79</time>
   <time name="total">   69.18   69.34</time>
   <dipole>
    <v name="dipole">      0.00000000       0.00000000      -0.25557462 </v>
    <i name="Tr[quadrupol]">  -3948.26454084 </i>
    <i name="Echarged">      0.00000000 </i>
    <i name="Edipol_quadrupol">      0.00000000 </i>
    <i name="Eion">      0.00000000 </i>
   </dipole>
   <energy>
    <i name="e_fr_energy">   -153.86590132 </i>
    <i name="e_wo_entrp">   -153.86063943 </i>
    <i name="e_0_energy">   -153.86327037 </i>
   </energy>
  </scstep>
  <scstep>
   <time name="diag">   13.10   13.13</time>
   <time name="diis">   49.69   49.81</time>
   <time name="orth">    1.85    1.86</time>
   <time name="total">   69.26   69.43</time>
   <dipole>
    <v name="dipole">      0.00000000       0.00000000      -0.25028757 </v>
    <i name="Tr[quadrupol]">  -3948.65478203 </i>
    <i name="Echarged">      0.00000000 </i>
    <i name="Edipol_quadrupol">      0.00000000 </i>
    <i name="Eion">      0.00000000 </i>
   </dipole>
   <energy>
    <i name="e_fr_energy">   -153.71976326 </i>
    <i name="e_wo_entrp">   -153.71415317 </i>
    <i name="e_0_energy">   -153.71695822 </i>
   </energy>
  </scstep>
  <scstep>
   <time name="diag">   13.02   13.05</time>
   <time name="diis">   49.67   49.78</time>
   <time name="orth">    1.88    1.89</time>
   <time name="total">   69.14   69.31</time>
   <dipole>
    <v name="dipole">      0.00000000       0.00000000      -0.23709430 </v>
    <i name="Tr[quadrupol]">  -3949.14496031 </i>
    <i name="Echarged">      0.00000000 </i>
    <i name="Edipol_quadrupol">      0.00000000 </i>
    <i name="Eion">      0.00000000 </i>
   </dipole>
   <energy>
    <i name="e_fr_energy">   -153.71189805 </i>
    <i name="e_wo_entrp">   -153.70602433 </i>
    <i name="e_0_energy">   -153.70896119 </i>
   </energy>
  </scstep>
  <scstep>
   <time name="diag">   13.08   13.11</time>
   <time name="diis">   49.33   49.45</time>
   <time name="orth">    1.96    1.97</time>
   <time name="total">   68.90   69.06</time>
   <dipole>
    <v name="dipole">      0.00000000       0.00000000      -0.22532259 </v>
    <i name="Tr[quadrupol]">  -3949.46950925 </i>
    <i name="Echarged">      0.00000000 </i>
    <i name="Edipol_quadrupol">      0.00000000 </i>
    <i name="Eion">      0.00000000 </i>
   </dipole>
   <energy>
    <i name="e_fr_energy">   -153.69042237 </i>
    <i name="e_wo_entrp">   -153.68417769 </i>
    <i name="e_0_energy">   -153.68730003 </i>
   </energy>
  </scstep>
  <scstep>
   <time name="diag">   13.13   13.16</time>
   <time name="diis">   49.09   49.21</time>
   <time name="orth">    1.92    1.92</time>
   <time name="total">   68.69   68.85</time>
   <dipole>
    <v name="dipole">      0.00000000       0.00000000      -0.23359837 </v>
    <i name="Tr[quadrupol]">  -3949.66106426 </i>
    <i name="Echarged">      0.00000000 </i>
    <i name="Edipol_quadrupol">      0.00000000 </i>
    <i name="Eion">      0.00000000 </i>
   </dipole>
   <energy>
    <i name="e_fr_energy">   -153.68748875 </i>
    <i name="e_wo_entrp">   -153.68132144 </i>
    <i name="e_0_energy">   -153.68440510 </i>
   </energy>
  </scstep>
  <scstep>
   <time name="diag">   13.18   13.21</time>
   <time name="diis">   49.14   49.26</time>
   <time name="orth">    1.93    1.93</time>
   <time name="total">   68.70   68.86</time>
   <dipole>
    <v name="dipole">      0.00000000       0.00000000      -0.23333850 </v>
    <i name="Tr[quadrupol]">  -3949.80519005 </i>
    <i name="Echarged">      0.00000000 </i>
    <i name="Edipol_quadrupol">      0.00000000 </i>
    <i name="Eion">      0.00000000 </i>
   </dipole>
   <energy>
    <i name="e_fr_energy">   -153.68070694 </i>
    <i name="e_wo_entrp">   -153.67440597 </i>
    <i name="e_0_energy">   -153.67755645 </i>
   </energy>
  </scstep>
  <scstep>
   <time name="diag">   13.24   13.27</time>
   <time name="diis">   49.15   49.26</time>
   <time name="orth">    1.90    1.90</time>
   <time name="total">   68.68   68.85</time>
   <dipole>
    <v name="dipole">      0.00000000       0.00000000      -0.21437213 </v>
    <i name="Tr[quadrupol]">  -3950.02926304 </i>
    <i name="Echarged">      0.00000000 </i>
    <i name="Edipol_quadrupol">      0.00000000 </i>
    <i name="Eion">      0.00000000 </i>
   </dipole>
   <energy>
    <i name="e_fr_energy">   -153.67874430 </i>
    <i name="e_wo_entrp">   -153.67288818 </i>
    <i name="e_0_energy">   -153.67581624 </i>
   </energy>
  </scstep>
  <scstep>
   <time name="diag">   13.23   13.26</time>
   <time name="diis">   49.27   49.38</time>
   <time name="orth">    1.89    1.90</time>
   <time name="total">   68.73   68.90</time>
   <dipole>
    <v name="dipole">      0.00000000       0.00000000      -0.20759047 </v>
    <i name="Tr[quadrupol]">  -3950.25328702 </i>
    <i name="Echarged">      0.00000000 </i>
    <i name="Edipol_quadrupol">      0.00000000 </i>
    <i name="Eion">      0.00000000 </i>
   </dipole>
   <energy>
    <i name="e_fr_energy">   -153.67610443 </i>
    <i name="e_wo_entrp">   -153.66992996 </i>
    <i name="e_0_energy">   -153.67301720 </i>
   </energy>
  </scstep>
  <scstep>
   <time name="diag">   13.15   13.18</time>
   <time name="diis">   49.23   49.34</time>
   <time name="orth">    1.89    1.89</time>
   <time name="total">   68.62   68.79</time>
   <dipole>
    <v name="dipole">      0.00000000       0.00000000      -0.19035459 </v>
    <i name="Tr[quadrupol]">  -3950.58062913 </i>
    <i name="Echarged">      0.00000000 </i>
    <i name="Edipol_quadrupol">      0.00000000 </i>
    <i name="Eion">      0.00000000 </i>
   </dipole>
   <energy>
    <i name="e_fr_energy">   -153.67093823 </i>
    <i name="e_wo_entrp">   -153.66500172 </i>
    <i name="e_0_energy">   -153.66796997 </i>
   </energy>
  </scstep>
  <scstep>
   <time name="diag">   13.35   13.38</time>
   <time name="diis">   50.12   50.23</time>
   <time name="orth">    1.89    1.89</time>
   <time name="total">   69.72   69.89</time>
   <dipole>
    <v name="dipole">      0.00000000       0.00000000      -0.18732284 </v>
    <i name="Tr[quadrupol]">  -3950.68446092 </i>
    <i name="Echarged">      0.00000000 </i>
    <i name="Edipol_quadrupol">      0.00000000 </i>
    <i name="Eion">      0.00000000 </i>
   </dipole>
   <energy>
    <i name="e_fr_energy">   -153.66792988 </i>
    <i name="e_wo_entrp">   -153.66183378 </i>
    <i name="e_0_energy">   -153.66488183 </i>
   </energy>
  </scstep>
  <scstep>
   <time name="diag">   13.30   13.34</time>
   <time name="diis">   48.87   48.99</time>
   <time name="orth">    1.94    1.95</time>
   <time name="total">   68.61   68.78</time>
   <dipole>
    <v name="dipole">      0.00000000       0.00000000      -0.17620862 </v>
    <i name="Tr[quadrupol]">  -3950.83150481 </i>
    <i name="Echarged">      0.00000000 </i>
    <i name="Edipol_quadrupol">      0.00000000 </i>
    <i name="Eion">      0.00000000 </i>
   </dipole>
   <energy>
    <i name="e_fr_energy">   -153.66561082 </i>
    <i name="e_wo_entrp">   -153.65946718 </i>
    <i name="e_0_energy">   -153.66253900 </i>
   </energy>
  </scstep>
  <scstep>
   <time name="diag">   13.28   13.31</time>
   <time name="diis">   48.83   48.94</time>
   <time name="orth">    1.88    1.89</time>
   <time name="total">   68.33   68.50</time>
   <dipole>
    <v name="dipole">      0.00000000       0.00000000      -0.17056146 </v>
    <i name="Tr[quadrupol]">  -3950.93867385 </i>
    <i name="Echarged">      0.00000000 </i>
    <i name="Edipol_quadrupol">      0.00000000 </i>
    <i name="Eion">      0.00000000 </i>
   </dipole>
   <energy>
    <i name="e_fr_energy">   -153.66394601 </i>
    <i name="e_wo_entrp">   -153.65776263 </i>
    <i name="e_0_energy">   -153.66085432 </i>
   </energy>
  </scstep>
  <scstep>
   <time name="diag">   13.26   13.29</time>
   <time name="diis">   48.64   48.76</time>
   <time name="orth">    1.90    1.91</time>
   <time name="total">   68.17   68.34</time>
   <dipole>
    <v name="dipole">      0.00000000       0.00000000      -0.16205259 </v>
    <i name="Tr[quadrupol]">  -3951.02915123 </i>
    <i name="Echarged">      0.00000000 </i>
    <i name="Edipol_quadrupol">      0.00000000 </i>
    <i name="Eion">      0.00000000 </i>
   </dipole>
   <energy>
    <i name="e_fr_energy">   -153.66368583 </i>
    <i name="e_wo_entrp">   -153.65758424 </i>
    <i name="e_0_energy">   -153.66063504 </i>
   </energy>
  </scstep>
  <scstep>
   <time name="diag">   13.37   13.41</time>
   <time name="diis">   48.57   48.68</time>
   <time name="orth">    1.89    1.90</time>
   <time name="total">   68.18   68.35</time>
   <dipole>
    <v name="dipole">      0.00000000       0.00000000      -0.15330980 </v>
    <i name="Tr[quadrupol]">  -3951.15621710 </i>
    <i name="Echarged">      0.00000000 </i>
    <i name="Edipol_quadrupol">      0.00000000 </i>
    <i name="Eion">      0.00000000 </i>
   </dipole>
   <energy>
    <i name="e_fr_energy">   -153.66534179 </i>
    <i name="e_wo_entrp">   -153.65916781 </i>
    <i name="e_0_energy">   -153.66225480 </i>
   </energy>
  </scstep>
  <scstep>
   <time name="diag">   13.19   13.23</time>
   <time name="diis">   47.93   48.05</time>
   <time name="orth">    1.90    1.90</time>
   <time name="total">   67.71   67.87</time>
   <dipole>
    <v name="dipole">      0.00000000       0.00000000      -0.13202554 </v>
    <i name="Tr[quadrupol]">  -3951.42543998 </i>
    <i name="Echarged">      0.00000000 </i>
    <i name="Edipol_quadrupol">      0.00000000 </i>
    <i name="Eion">      0.00000000 </i>
   </dipole>
   <energy>
    <i name="e_fr_energy">   -153.66805081 </i>
    <i name="e_wo_entrp">   -153.66209767 </i>
    <i name="e_0_energy">   -153.66507424 </i>
   </energy>
  </scstep>
  <scstep>
   <time name="diag">   13.24   13.27</time>
   <time name="diis">   46.06   46.17</time>
   <time name="orth">    1.97    1.97</time>
   <time name="total">   66.37   66.54</time>
   <dipole>
    <v name="dipole">      0.00000000       0.00000000      -0.14290164 </v>
    <i name="Tr[quadrupol]">  -3951.35625606 </i>
    <i name="Echarged">      0.00000000 </i>
    <i name="Edipol_quadrupol">      0.00000000 </i>
    <i name="Eion">      0.00000000 </i>
   </dipole>
   <energy>
    <i name="e_fr_energy">   -153.66791335 </i>
    <i name="e_wo_entrp">   -153.66172462 </i>
    <i name="e_0_energy">   -153.66481899 </i>
   </energy>
  </scstep>
  <scstep>
   <time name="diag">   13.55   13.58</time>
   <time name="diis">   41.04   41.13</time>
   <time name="orth">    1.97    1.97</time>
   <time name="total">   61.68   61.83</time>
   <dipole>
    <v name="dipole">      0.00000000       0.00000000      -0.13960280 </v>
    <i name="Tr[quadrupol]">  -3951.55845014 </i>
    <i name="Echarged">      0.00000000 </i>
    <i name="Edipol_quadrupol">      0.00000000 </i>
    <i name="Eion">      0.00000000 </i>
   </dipole>
   <energy>
    <i name="e_fr_energy">   -153.66950035 </i>
    <i name="e_wo_entrp">   -153.66327238 </i>
    <i name="e_0_energy">   -153.66638637 </i>
   </energy>
  </scstep>
  <scstep>
   <time name="diag">   13.49   13.52</time>
   <time name="diis">   39.84   39.93</time>
   <time name="orth">    1.94    1.95</time>
   <time name="total">   60.36   60.51</time>
   <dipole>
    <v name="dipole">      0.00000000       0.00000000      -0.14227301 </v>
    <i name="Tr[quadrupol]">  -3951.64253170 </i>
    <i name="Echarged">      0.00000000 </i>
    <i name="Edipol_quadrupol">      0.00000000 </i>
    <i name="Eion">      0.00000000 </i>
   </dipole>
   <energy>
    <i name="e_fr_energy">   -153.67044370 </i>
    <i name="e_wo_entrp">   -153.66416205 </i>
    <i name="e_0_energy">   -153.66730288 </i>
   </energy>
  </scstep>
  <scstep>
   <time name="diag">   13.52   13.56</time>
   <time name="diis">   36.95   37.04</time>
   <time name="orth">    1.91    1.92</time>
   <time name="total">   57.32   57.46</time>
   <dipole>
    <v name="dipole">      0.00000000       0.00000000      -0.14509465 </v>
    <i name="Tr[quadrupol]">  -3951.59697260 </i>
    <i name="Echarged">      0.00000000 </i>
    <i name="Edipol_quadrupol">      0.00000000 </i>
    <i name="Eion">      0.00000000 </i>
   </dipole>
   <energy>
    <i name="e_fr_energy">   -153.67085686 </i>
    <i name="e_wo_entrp">   -153.66457042 </i>
    <i name="e_0_energy">   -153.66771364 </i>
   </energy>
  </scstep>
  <scstep>
   <time name="diag">   13.33   13.36</time>
   <time name="diis">   45.99   46.09</time>
   <time name="orth">    1.94    1.95</time>
   <time name="total">   65.76   65.92</time>
   <dipole>
    <v name="dipole">      0.00000000       0.00000000      -0.10979428 </v>
    <i name="Tr[quadrupol]">  -3961.75301559 </i>
    <i name="Echarged">      0.00000000 </i>
    <i name="Edipol_quadrupol">      0.00000000 </i>
    <i name="Eion">      0.00000000 </i>
   </dipole>
   <energy>
    <i name="e_fr_energy">   -158.56865211 </i>
    <i name="e_wo_entrp">   -158.56300566 </i>
    <i name="e_0_energy">   -158.56582888 </i>
   </energy>
  </scstep>
  <scstep>
   <time name="diag">   13.60   13.63</time>
   <time name="diis">   38.89   38.98</time>
   <time name="orth">    2.22    2.23</time>
   <time name="total">   60.02   60.17</time>
   <dipole>
    <v name="dipole">      0.00000000       0.00000000      -0.11725186 </v>
    <i name="Tr[quadrupol]">  -3961.68420705 </i>
    <i name="Echarged">      0.00000000 </i>
    <i name="Edipol_quadrupol">      0.00000000 </i>
    <i name="Eion">      0.00000000 </i>
   </dipole>
   <energy>
    <i name="e_fr_energy">   -158.56949982 </i>
    <i name="e_wo_entrp">   -158.56381046 </i>
    <i name="e_0_energy">   -158.56665514 </i>
   </energy>
  </scstep>
  <scstep>
   <time name="diag">   13.78   13.81</time>
   <time name="diis">   33.95   34.03</time>
   <time name="orth">    2.09    2.09</time>
   <time name="total">   55.04   55.17</time>
   <dipole>
    <v name="dipole">      0.00000000       0.00000000      -0.11806842 </v>
    <i name="Tr[quadrupol]">  -3961.67699261 </i>
    <i name="Echarged">      0.00000000 </i>
    <i name="Edipol_quadrupol">      0.00000000 </i>
    <i name="Eion">      0.00000000 </i>
   </dipole>
   <energy>
    <i name="e_fr_energy">   -158.56997128 </i>
    <i name="e_wo_entrp">   -158.56427904 </i>
    <i name="e_0_energy">   -158.56712516 </i>
   </energy>
  </scstep>
  <scstep>
   <time name="diag">   13.40   13.43</time>
   <time name="diis">   31.55   31.63</time>
   <time name="orth">    1.85    1.85</time>
   <time name="total">   51.16   51.29</time>
   <dipole>
    <v name="dipole">      0.00000000       0.00000000      -0.11579417 </v>
    <i name="Tr[quadrupol]">  -3961.68098634 </i>
    <i name="Echarged">      0.00000000 </i>
    <i name="Edipol_quadrupol">      0.00000000 </i>
    <i name="Eion">      0.00000000 </i>
   </dipole>
   <energy>
    <i name="e_fr_energy">   -158.57001098 </i>
    <i name="e_wo_entrp">   -158.56435670 </i>
    <i name="e_0_energy">   -158.56718384 </i>
   </energy>
  </scstep>
  <scstep>
   <time name="diag">   11.61   11.64</time>
   <time name="diis">   28.58   28.65</time>
   <time name="orth">    1.64    1.64</time>
   <time name="total">   44.87   44.98</time>
   <dipole>
    <v name="dipole">      0.00000000       0.00000000      -0.11359147 </v>
    <i name="Tr[quadrupol]">  -3961.76018284 </i>
    <i name="Echarged">      0.00000000 </i>
    <i name="Edipol_quadrupol">      0.00000000 </i>
    <i name="Eion">      0.00000000 </i>
   </dipole>
   <energy>
    <i name="e_fr_energy">   -158.57016700 </i>
    <i name="e_wo_entrp">   -158.56453365 </i>
    <i name="e_0_energy">   -158.56735032 </i>
   </energy>
  </scstep>
  <scstep>
   <time name="diag">    9.70    9.73</time>
   <time name="diis">   20.02   20.07</time>
   <time name="orth">    1.61    1.61</time>
   <time name="total">   34.56   34.64</time>
   <dipole>
    <v name="dipole">      0.00000000       0.00000000      -0.11025546 </v>
    <i name="Tr[quadrupol]">  -3961.58579336 </i>
    <i name="Echarged">      0.00000000 </i>
    <i name="Edipol_quadrupol">      0.00000000 </i>
    <i name="Eion">      0.00000000 </i>
   </dipole>
   <energy>
    <i name="e_fr_energy">   -158.57023308 </i>
    <i name="e_wo_entrp">   -158.56461167 </i>
    <i name="e_0_energy">   -158.56742237 </i>
   </energy>
  </scstep>
  <scstep>
   <time name="diag">    9.72    9.75</time>
   <time name="diis">   17.33   17.37</time>
   <time name="orth">    1.53    1.53</time>
   <time name="total">   28.82   28.89</time>
   <dipole>
    <v name="dipole">      0.00000000       0.00000000      -0.10867409 </v>
    <i name="Tr[quadrupol]">  -3961.50215886 </i>
    <i name="Echarged">      0.00000000 </i>
    <i name="Edipol_quadrupol">      0.00000000 </i>
    <i name="Eion">      0.00000000 </i>
   </dipole>
   <energy>
    <i name="alphaZ">    980.45137621 </i>
    <i name="ewald"> 112587.65690134 </i>
    <i name="hartreedc">-140188.43127244 </i>
    <i name="XCdc">   -999.14195379 </i>
    <i   <time name="diag">    8.67    8.69</time>
   <time name="diis">   17.36   17.41</time>
   <time name="orth">    1.49    1.49</time>
   <time name="total">   30.34   30.42</time>
   <dipole>
    <v name="dipole">      0.00000000       0.00000000      -0.10801038 </v>
    <i name="Tr[quadrupol]">  -3963.03190777 </i>
    <i name="Echarged">      0.00000000 </i>
    <i name="E  <structure>
   <crystal>
    <varray name="basis" >
     <v>       7.91200018       0.00000000       0.00000000 </v>
     <v>       0.00000000       7.91200018       0.00000000 </v>
     <v>       0.00000000       0.00000000      23.93400002 </v>
    </varray>
    <i name="volume">   1498.26234176 </i>
    <varray name="rec_   <time name="diis">   16.97   17.01</time>
   <time name="orth">    1.42    1.43</time>
   <time name="total">   29.78   29.85</time>
   <dipole>
    <v name="dipole">      0.00000000       0.00000000      -0.10956222 </v>
    <i name="Tr[quadrupol]">  -3962.99847394 </i>
    <i name="Echarged">      0.00000000 </i>
    <i name="Edipol_quadrupol">      0.00000000 </i>
    <i name="Eion">      0.00000000 </i>
   </dipole>
   <energy>
    <i name="e_fr_energy">   -158.57695788 </i>
    <i name="e_wo_entrp">   -158.57130491 </i>
    <i name="e_0_energy">   -158.57413139 </i>
   </energy>
  </scstep>
  <scstep>
   <time name="diag">    8.08    8.10</time>
   <time name="diis">   15.24   15.28</time>
   <time name="orth">    1.43    1.43</time>
   <time name="total">   24.97   25.03</time>
   <dipole>
    <v name="dipole">      0.00000000       0.00000000      -0.11107087 </v>
    <i name="Tr[quadrupol]">  -3963.00445577 </i>
    <i name="Echarged">      0.00000000 </i>
    <i name="Edipol_quadrupol">      0.00000000 </i>
    <i name="Eion">      0.00000000 </i>
   </dipole>
   <energy>
    <i name="alphaZ">    979.53886183 </i>
    <i name="ewald"> 112709.40592371 </i>
    <i name="hartreedc">-140310.21374458 </i>
    <i name="XCdc">   -999.07782269 </i>
    <i name="pawpsdc">  22907.23840765 </i>
    <i name="pawaedc"> -20892.16083043 </i>
    <i name="eentropy">     -0.00566487 </i>
    <i name="bandstr">  -1308.69929428 </i>
    <i name="atom">  26755.39719902 </i>
    <i name="e_fr_energy">   -158.57696462 </i>
    <i name="e_wo_entrp">   -158.57129976 </i>
    <i name="e_0_energy">   -158.57413219 </i>
   </energy>
  </scstep>
  <structure>
   <crystal>
    <varray name="basis" >
     <v>       7.91200018       0.00000000       0.00000000 </v>
     <v>       0.00000000       7.91200018       0.00000000 </v>
     <v>       0.00000000       0.00000000      23.93400002 </v>
    </varray>
    <i name="volume">   1498.26234176 </i>
    <varray name="rec_basis" >
     <v>       0.12639029       0.00000000       0.00000000 </v>
     <v>       0.00000000       0.1263  <energy>
   <i name="e_fr_energy">   -153.68681892 </i>
   <i name="e_wo_entrp">   -153.68374340 </i>
   <i name="e_0_energy">     -0.00615104 </i>
  </energy>
  <time name="totalsc"> 2621.27 2627.99</time>
 </calculation>
   0.25000000       0.00000000       0.00000000 </v>
    <v>       0.50000000       0.25000000       0.00000000 </v>
    <v>       0.75000000       0.00000000       0.00000000 </v>
    <v>       0.00000000       0.75000000       0.00000000 </v>
    <v>       0.25000000       0.50000000       0.00000000 </v>
    <v>       0.50000000       0.75000000       0.00000000 </v>
    <v>       0.75000000       0.50000000       0.00000000 </v>
  <energy>
   <i name="e_fr_energy">   -153.67036999 </i>
   <i name="e_wo_entrp">   -153.66731048 </i>
   <i name="e_0_energy">     -0.00611903 </i>
  </energy>
  <time name="totalsc"> 2621.96 2628.73</time>
 </calculation>
25000000       0.08264000 </v>
    <v>       0.00000000       0.50000000       0.08264000 </v>
    <v>       0.25000000       0.75000000       0.08264000 </v>
    <v>       0.50000000       0.50000000       0.08264000 </v>
    <v>       0.75000000       0.75000000       0.08264000 </v>
    <v>       0.00000000       0.25000000       0.16465153 </v>
    <v>       0.24943411       0.99968953       0.16439478 </v>
    <v>       0.50000000       0.25000000       0.16565729 </v>
    <v>       0.75056589       0.99968953       0.16439478 </v>
    <v>       0.00000000       0.75000000       0.16408270 </v>
    <v>       0.24943411       0.50031047       0.16439478 </v>
    <v>       0.50000000       0.75000000       0.16498244 </v>
    <v>       0.75056589       0.50031047       0.16439478 </v>
    <v>       0.00000000       0.99813905       0.24624252 </v>
    <v>       0.24240048       0.25000000       0.24605587 </v>
    <v>       0.50000000       0.99445707       0.24599987 </v>
    <v>       0.75759952       0.25000000       0.24605587 </v>
    <v>       0.00000000       0.50186095     <energy>
   <i name="e_fr_energy">   -149.72872136 </i>
   <i name="e_wo_entrp">   -149.72598239 </i>
   <i name="e_0_energy">     -0.00547794 </i>
  </energy>
  <time name="totalsc"> 2621.59 2628.32</time>
 </calculation>
 0.50000000       0.16666667       0.31687389 </v>
   </varray>
  </structure>
  <varray name="forces" >
   <v>       0.00000000       0.00678581       0.16047587 </v>
   <v>      -0.00329991      -0.00549400       0.18659761 </v>
   <v>       0.00000000      -0.00869580       0.07911929 </v>
   <v>       0.00329991      -0.00549400       0.18659761 </v>
   <v>       0.00000000      -0.01365139       0.10436905 </v>
   <v>      -0.00  <energy>
   <i name="e_fr_energy">   -158.57023419 </i>
   <i name="e_wo_entrp">   -158.56742069 </i>
   <i name="e_0_energy">     -0.00562701 </i>
  </energy>
  <time name="totalsc"> 2621.16 2627.89</time>
 </calculation>
4353 </v>
   <v>       0.03827344      -0.01666692      -0.13807439 </v>
   <v>       0.00000000       0.03281302      -0.08391886 </v>
   <v>      -0.03827344      -0.01666692      -0.13807439 </v>
   <v>       0.00000000      -0.02094169      -0.16077083 </v>
   <v>       0.02522019       0.00655014      -0.20188695 </v>
   <v>       0.00000000      -0.05213090      -0.10570695 </v>
   <v>      -0.02522019       0.00655014      -0.20188695 </v>
   <v>       0.00000000       0.00234856       0.02087064 </v>
   <v>      -0.01077201      -0.03074125      -0.04457367 </v>
   <v>       0.00000000       0.00710505      -0.00888981 </v>
   <v>       0.01077201      -0.03074125      -0.04457367 </v>
   <v>       0.00000000       0.00411961      -0.03860891 </v>
   <v>       0.01422116       0.00786070      -0.00628680 </v>
   <v>       0.00000000       0.10255815       0.02498992 </v>
   <v>      -0.01422116       0.00786070      -0.00628680 </v>
   <v>       0.00000000      -0.01705116       0.00085973 </v>
   <v>       0.10058701       0.06414234       0.14355369 </v>
   <v>       0.00000000      -3.95721443      -4.45523327 </v>
   <v>      -0.10058701       0.06414234       0.14355369 </v>
   <v>       0.00000000       0.04807475      -0.00137135 </v>
   <v>       0.08529470       0.03450077       0.01018537 </v>
   <v>      -0.08529470       0.03450077       0.01018537 </v>
   <v>       0.00000000      -0.32839340       0.26402683 </v>
   <v>       0.00000000       4.04742112       3.97987180 </v>
  </varray>
  <varray name="stress" >
   <v>     -16.56573219       0.00000000       0.00000000 </v>
   <v>       0.00000000     -10.54881853       7.45528239 </v>
   <v>       0.00000000       7.45528278       4.18329575 </v>
  </varray>
  <energy>
   <i name="e_fr_energy">   -158.57696462 </i>
   <i name="e_wo_entrp">   -158.57413219 </i>
   <i name="e_0_energy">     -0.00566487 </i>
  </energy>
  <time name="totalsc"> 2621.77 2628.53</time>
 </calculation>
 <calculation>
 <calculati   <time name="dav">   73.00   73.17</time>
   <time name="total">   77.67   77.86</time>
   <dipole>
    <v name="dipole">      0.00000000       0.00000000      -0.11273688 </v>
    <i name="Tr[quadrupol]">  -3963.56979622 </i>
    <i name="Echarged">      0.00000000 </i>
    <i name="Edipol_quadrupol">      0.00000000 </i>
    <i name="Eion">      0.00000000 </i>
   </dipole>
   <energy>
    <i name="alphaZ">    980.19464198 </i>
    <i name="ewald"> 112671.87070349 </i>
    <i name="hartreedc">-140274.20390605 </i>
    <i name="XCdc">   -999.19471371 </i>
    <i name="pawpsdc">  22907.21771747 </i>
    <i name="pawaedc"> -20892.13996289 </i>
    <i name="eentropy">     -0.00577438 </i>
    <i name="bandstr">  -1308.04066198 </i>
    <i name="atom">  26755.39719902 </i>
    <i name="e_fr_energy">   -158.90475707 </i>
    <i name="e_wo_entrp">   -158.89898268 </i>
    <i name="e_0_energy">   -158.90186987 </i>
   </energy>
  </scstep>
  <scstep>
   <time name="diag">   12.99   13.02</time>
   <time name="diis">   49.12   49.23</time>
   <time name="orth">    1.86    1.87</time>
   <time name="total">   68.45   68.61</t   <time name="total">   68.80   68.96</time>
   <dipole>
    <v name="dipole">      0.00000000       0.00000000       0.01424509 </v>
    <i name="Tr[quadrupol]">  -3962.22245541 </i>
    <i name="Echarged">      0.00000000 </i>
    <i name="Edipol_quadrupol">      0.00000000 </i>
    <i name="Eion">      0.00000000 </i>
   </dipole>
   <energy>
    <i name="e_fr_energy">   -159.61042308 </i>
    <i name="e_wo_entrp">   -159.60562664 </i>
    <i name="e_0_energy">   -159.60802486    <time name="diag">   12.67   12.70</ti   <   <time name="diis">   50.08   50.20</ti   <   <time name="orth">    1.86    1.87</ti   <   <time name="total">   69.22   69.39</t   <time name="total">   69.24   69.40</time>
   <dipole>
    <v name="dipole">      0.00000000       0.00000000      -0.15149749 </v>
    <i name="Tr[quadrupol]">  -3962.26053700 </i>
    <i name="Echarged">      0.00000000 </i>
    <i name="Edipol_quadrupol">      0.00000000 </i>
    <i name="Eion">      0.00000000 </i>
   </dipole>
   <energy>
    <i name="e_fr_energy">   -159.10344223 </i>
    <i name="e_wo_entrp">   -159.09927020 </i>
    <i name="e_0_energy">   -159.10135621    <time name="diag">   12.85   12.88</ti   <   <time name="diis">   49.88   50.00</ti   <   <time name="orth">    1.88    1.88</ti   <   <time name="total">   68.99   69.16</t   <time name="total">   69.29   69.46</time>
   <dipole>
    <v name="dipole">      0.00000000       0.00000000      -0.08549417 </v>
    <i name="Tr[quadrupol]">  -3962.42425338 </i>
    <i name="Echarged">      0.00000000 </i>
    <i name="Edipol_quadrupol">      0.00000000 </i>
    <i name="Eion">      0.00000000 </i>
   </dipole>
   <energy>
    <i name="e_fr_energy">   -159.02702612 </i>
    <i name="e_wo_entrp">   -159.02124919 </i>
    <i name="e_0_energy">   -159.02413766    <time name="diag">   12.82   12.85</ti   <   <time name="diis">   49.56   49.68</ti   <   <time name="orth">    1.84    1.85</ti   <   <time name="total">   68.64   68.80</t   <time name="total">   69.00   69.17</time>
   <dipole>
    <v name="dipole">      0.00000000       0.00000000      -0.10682824 </v>
    <i name="Tr[quadrupol]">  -3962.21442445 </i>
    <i name="Echarged">      0.00000000 </i>
    <i name="Edipol_quadrupol">      0.00000000 </i>
    <i name="Eion">      0.00000000 </i>
   </dipole>
   <energy>
    <i name="e_fr_energy">   -158.97889101 </i>
    <i name="e_wo_entrp">   -158.97317984 </i>
    <i name="e_0_energy">   -158.97603542    <time name="diag">   13.10   13.13</ti   <   <time name="diis">   49.49   49.61</ti   <   <time name="orth">    1.90    1.90</ti   <   <time name="total">   69.01   69.18</t   <time name="total">   69.42   69.58</time>
   <dipole>
    <v name="dipole">      0.00000000       0.00000000      -0.10631396 </v>
    <i name="Tr[quadrupol]">  -3962.16652053 </i>
    <i name="Echarged">      0.00000000 </i>
    <i name="Edipol_quadrupol">      0.00000000 </i>
    <i name="Eion">      0.00000000 </i>
   </dipole>
   <energy>
    <i name="e_fr_energy">   -158.97409628 </i>
    <i name="e_wo_entrp">   -158.96838885 </i>
    <i name="e_0_energy">   -158.97124256    <time name="diag">   12.84   12.87</ti   <   <time name="diis">   50.12   50.24</ti   <   <time name="orth">    1.83    1.83</ti   <   <time name="total">   69.49   69.66</t   <time name="total">   68.65   68.82</time>
   <dipole>
    <v name="dipole">      0.00000000       0.00000000      -0.10643669 </v>
    <i name="Tr[quadrupol]">  -3962.15357878 </i>
    <i name="Echarged">      0.00000000 </i>
    <i name="Edipol_quadrupol">      0.00000000 </i>
    <i name="Eion">      0.00000000 </i>
   </dipole>
   <energy>
    <i name="e_fr_energy">   -158.97195785 </i>
    <i name="e_wo_entrp">   -158.96603499 </i>
    <i name="e_0_energy">   -158.96899642    <time name="diag">   12.98   13.02</ti   <   <time name="diis">   50.18   50.30</time>
   <time name="orth">    1.80    1.80</time>
   <time name="total">   69.66   69.83</time>
   <dipole>
    <v name="dipole">      0.00000000       0.00000000      -0.10924508 </v>
    <i name="Tr[quadrupol]">  -3963.63034550 </i>
    <i name="Echarged">      0.00000000 </i>
    <i name="Edipol_quadrupol">      0.00000000 </i>
    <i name="Eion">      0.00000000 </i>
   </dipole>
   <energy>
    <i name="e_fr_energy">   -158.97252679 </i>
    <i name="e_wo_entrp">   -158.96685916 </i>
    <i name="e_0_energy">   -158.96969297 </i>
   </energy>
  </scstep>
  <scstep>
   <time name="diag">   13.02   13.05</time>
   <time name="diis">   51.14   51.26</time>
   <time name="orth">    1.86    1.87</time>
   <time name="total">   70.83   71.00</time>
   <dipole>
    <v name="dipole">      0.00000000       0.00000000      -0.11069048 </v>
    <i name="Tr[quadrupol]">  -3963.64041085 </i>
    <i name="Echarged">      0.00000000 </i>
    <i name="Edipol_quadrupol">      0.00000000 </i>
    <i name="Eion">      0.00000000 </i>
   </dipole>
   <energy>
    <i name="e_fr_energy">   -158.97182583 </i>
    <i name="e_wo_entrp">   -158.96608986 </i>
    <i name="e_0_energy">   -158.96895784 </i>
   </energy>
  </scstep>
  <scstep>
   <time name="diag">   13.57   13.60</time>
   <time name="diis">   51.76   51.88</time>
   <time name="orth">    1.87    1.88</time>
   <time name="total">   71.75   71.92</time>
   <dipole>
    <v name="dipole">      0.00000000       0.00000000      -0.11114710 </v>
    <i name="Tr[quadrupol]">  -3963.64460294 </i>
    <i name="Echarged">      0.00000000 </i>
    <i name="Edipol_quadrupol">      0.00000000 </i>
    <i name="Eion">      0.00000000 </i>
   </dipole>
   <energy>
    <i name="e_fr_energy">   -158.97176134 </i>
    <i name="e_wo_entrp">   -158.96602579 </i>
    <i name="e_0_energy">   -158.96889356 </i>
   </energy>
  </scstep>
  <scstep>
   <time name="diag">   13.39   13.43</time>
   <time name="diis">   48.65   48.76</time>
   <time name="orth">    1.87    1.87</time>
   <time name="total">   68.70   68.87</time>
   <dipole>
    <v name="dipole">      0.00000000       0.00000000      -0.11106368 </v>
    <i name="Tr[quadrupol]">  -3963.64667568 </i>
    <i name="Echarged">      0.00000000 </i>
    <i name="Edipol_quadrupol">      0.00000000 </i>
    <i name="Eion">      0.00000000 </i>
   </dipole>
   <energy>
    <i name="e_fr_energy">   -158.97160399 </i>
    <i name="e_wo_entrp">   -158.96589372 </i>
    <i name="e_0_energy">   -158.96874885 </i>
   </energy>
  </scstep>
  <scstep>
   <time name="diag">   13.38   13.42</time>
   <time name="diis">   48.47   48.59</time>
   <time name="orth">    1.94    1.94</time>
   <time name="total">   68.52   68.68</time>
   <dipole>
    <v name="dipole">      0.00000000       0.00000000      -0.11181564 </v>
    <i name="Tr[quadrupol]">  -3963.67059593 </i>
    <i name="Echarged">      0.00000000 </i>
    <i name="Edipol_quadrupol">      0.00000000 </i>
    <i name="Eion">      0.00000000 </i>
   </dipole>
   <energy>
    <i name="e_fr_energy">   -158.97162490 </i>
    <i name="e_wo_entrp">   -158.96591724 </i>
    <i name="e_0_energy">   -158.96877107 </i>
   </energy>
  </scstep>
  <scstep>
   <time name="diag">   13.43   13.47</time>
   <time name="diis">   47.80   47.92</time>
   <time name="orth">    1.93    1.94</time>
   <time name="total">   67.93   68.09</time>
   <dipole>
    <v name="dipole">      0.00000000       0.00000000      -0.11229403 </v>
    <i name="Tr[quadrupol]">  -3963.67501600 </i>
    <i name="Echarged">      0.00000000 </i>
    <i name="Edipol_quadrupol">      0.00000000 </i>
    <i name="Eion">      0.00000000 </i>
   </dipole>
   <energy>
    <i name="e_fr_energy">   -158.97157046 </i>
    <i name="e_wo_entrp">   -158.96586329 </i>
    <i name="e_0_energy">   -158.96871688 </i>
   </energy>
  </scstep>
  <scstep>
   <time name="diag">   13.56   13.60</time>
   <time name="   <time name="diis">   48.39   48.50</ti   <   <time name="orth">    1.80    1.80</ti   <   <time name="total">   67.06   67.22</t   <time name="total">   6   <time name="total">   67.44   67.61</time>
   <dipole>
    <v name="dipole">      0.00000000       0.00000000      -0.12274426 </v>
    <i name="Tr[quadrupol]">  -3952.12749114 </i>
    <i name="Echarged">      0.00000000 </i>
    <i name="Edipol_quadrupol">      0.00000000 </i>
    <i name="Eion">      0.00000000 </i>
   </dipole>
   <energy>
    <i name="e_fr_energy">   -157.55462139 </i>
    <i name="e_wo_entrp">   -157.54932240 </i>
    <time name="   <time name="diag">   12.79    <time name="   <time name="diis">   47.65   47.76</ti   <   <time name="orth">    <time name="diis   <   <time name="total">   66.88   67.04</t   <time name="total">   6   <time name="total">   67.11   67.27</time>
   <dipole>
    <v name="dipole">      0.00000000       0.00000000      -0.12420080 </v>
    <i name="Tr[quadrupol]">  -3952.19269777 </i>
    <i name="Echarged">      0.00000000 </i>
    <i name="Edipol_quadrupol">      0.00000000 </i>
    <i name="Eion">      0.00000000 </i>
   </dipole>
   <energy>
    <i name="e_fr_energy">   -157.55445938 </i>
    <i name="e_wo_entrp">   -157.54916485 </i>
    <i name="e_0   <time name="diag">   12.47   12.50</ti   <   <time name="diis">   39.30   39.40</ti   <   <time name="orth">    1.55    1.55</ti   <   <time name="total">   56.85   56.98</time>
   <dipole>
    <v na   <time name="total">   55.52   55.66</time>
   <dipole>
    <v name="dipole">      0.00000000       0.00000000      -0.12508589 </v>
    <i name="Tr[quadrupol]">  -3952.21979562 </i>
    <i name="Echarged">      0.00000000 </i>
    <i name="Edipol_quadrupol">      0.00000000 </i>
    <i name="Eion">      0.00000000 </i>
   </dipole>
   <energy>
    <i name="e_fr_energy">   -157.55440504 </i>
    <i name="e_wo_entrp">   -157.54910059 </i>
    <i name="e_0   <time name="diag">    9.86    9.88</time>
   <time name="diis">   25.61   25.67</time>
   <time name="orth">    1.58    1.59</time>
   <time name="total">   40.49   40.59</time>
   <dipole>
    <v na   <time name="total">   39.67   39.76</time>
   <dipole>
    <v name="dipole">      0.00000000       0.00000000      -0.12618598 </v>
    <i name="Tr[quadrupol]">  -3952.23230752 </i>
    <i name="Echarged">      0.00  <structure>
   <crystal>
    <varray name="basis" >
     <v>       7.91200018       0.00000000       0.00000000 </v>
     <v>       0.00000000       7.91200018       0.00000000 </v>
     <v>       0.00000000       0.00000000      23.93400002 </v>
    </varray>
    <i name="volume">      <time name="diis">   21.00   21.05</time>
   <time name="orth">    1.46    1.46</time>
   <time name="total">   35.09   35.18</time>
   <dipole>
    <v na   <time name="total">   35.61   35.70</time>
   <dipole>
    <v name="dipole">      0.00000000       0.00000000      -0.12789470 </v>
    <i name="Tr[quadrupol]">  -3952.27446889 </i>
    <i name="Echarged">      0.00000000 </i>
    <i name="Edipol_quadrupol">      0.00000000 </i>
    <i name="Eion">      0.00000000 </i>
   </dipole>
   <energy>
    <i name="e_fr_energy">   -157.55448010 </i>
    <i name="e_wo_entrp">   -157.54916759 </i>
    <i name="e_0   <time name="diag">    8.38    8.40</time>
   <time name="diis">   17.30   17.34</time>
   <time name="orth">    1.46    1.46</time>
   <time name="total">   29.81   29.88</time>
   <dipole>
    <v na   <time name="total">   29.99   30.06</time>
   <dipole>
    <v name="dipole">      0.00000000       0.00000000      -0.12871248 </v>
    <i name="Tr[quadrupol]">  -3952.28224334 </i>
    <i name="Echarged">      0.00000000 </i>
    <i name="Edipol_quadrupol">      0.00000000 </i>
    <i name="Eion">      0.00000000 </i>
   </dipole>
   <energy>
    <i name="e_fr_energy">   -157.55450767 </i>
    <i name="e_wo_entrp">   -157.54919828 </i>
    <i name="e_0   <time name="diag">    8.28    8.30</time>
   <time name="diis">   16.85   16.89</time>
   <time name="orth">    1.55    1.55</time>
   <time name="total">   29.28   29.35</time>
   <dipole>
    <v na   <time name="total">   29.58   29.65</time>
   <dipole>
    <v name="dipole">      0.00000000       0.00000000      -0.12958251 </v>
    <i name="Tr[quadrupol]">  -3952.29189557 </i>
    <i name="Echarged">      0.00000000 </i>
    <i name="Edipol_quadrupol">      0.00000000 </i>
    <i name="Eion">      0.00000000 </i>
   </dipole>
   <energy>
    <i name="e_fr_energy">   -157.55453719 </i>
    <i name="e_wo_entrp">   -157.54922751 </i>
    <i name="e_0   <time name="diag">    8.25    8.27</time>
   <time name="diis">   16.82   16.86</time>
   <time name="orth">    1.49    1.50</time>
   <time name="total">   29.15   29.22</time>
   <dipole>
    <v na   <time name="total">   29.45   29.52</time>
   <dipole>
    <v name="dipole">      0.00000000       0.00000000      -0.13040146 </v>
    <i name="Tr[quadrupol]">  -3952.30022539 </i>
    <i name="Echarged">      0.00000000 </i>
    <i name="Edipol_quadrupol">      0.00000000 </i>
    <i name="Eion">      0.00000000 </i>
   </dipole>
   <energy>
    <i name="e_fr_energy">   -157.55455992 </i>
    <i name="e_wo_entrp">   -157.54925165 </i>
    <i name="e_0   <time name="diag">    8.33    8.35</time>
   <time name="diis">   17.12   17.16</time>
   <time name="orth">    1.52    1.52</time>
   <time name="total">   29.49   29.56</time>
   <dipole>
    <v na   <time name="total">   29.65   29.73</time>
   <dipole>
    <v name="dipole">      0.00000000       0.00000000      -0.13178520 </v>
    <i name="Tr[quadrupol]">  -3952.31471904 </i>
    <i name="Echarged">      0.00000000 </i>
    <i name="Edipol_quadrupol">      0.00000000 </i>
    <i name="Eion">      0.00000000 </i>
   </dipole>
   <energy>
    <i name="e_fr_energy">   -157.55458960 </i>
    <i name="e_wo_entrp">   -157.54928308 </i>
    <i name="e_0   <time name="diag">    8.27    8.29</time>
   <time name="diis">   16.20   16.24</time>
   <time name="orth">    1.52    1.53</time>
   <time name="total">   28.53   28.60</time>
   <dipole>
    <v na   <time name="total">   28.60   28.67</time>
   <dipole>
    <v name="dipole">      0.00000000       0.00000000      -0.13258364 </v>
    <i name="Tr[quadrupol]">  -3952.32282549 </i>
    <i name="Echarged">      0.00000000 </i>
    <i name="Edipol_quadrupol">      0.00000000 </i>
    <i name="Eion">      0.00000000 </i>
   </dipole>
   <energy>
    <i name="e_fr_energy">   -157.55460142 </i>
    <i name="e_wo_entrp">   -157.54929454 </i>
    <i name="e_0   <time name="diag">    8.38    8.40</time>
   <time name="diis">   15.63   15.67</time>
   <time name="orth">    <time name="diis">     <tim  <energy>
   <i name="e_fr_energy">   -158.97155596   <i    <i name="e_wo_entrp">   -158.96870786    <i   <i name="e_0_energy">     -0.00569620    <i  </energy>
  <time name="totalsc"> 1419.64 1423.03</  <time name="totalsc"> 1419.71 1423.10</time>
 </calculation>
">      0.00000000 </i>
    <i name="Edipol_quadrupol">      0.00000000 </i>
    <i name="Eion">      0.00000000 </i>
   </dipole>
   <energy>
    <i name="e_fr_energy">   -157.55461573 </i>
    <i name="e_wo_entrp">   -157.54930856 </i>
    <i name="e_0   <time name="diag">    8.26    8.28</time>
   <time name="diis">   15.10   15.13</time>
   <time name="orth">    <time name="diis">   15.03   15.07</time>
   <time name="orth">    1.49    1.49</ti  <energy>
   <i name="e_fr_energy">   -156.04618884 </i>
   <i name="e_wo_entrp">   -156.04410091 </i>
   <i name="e_0_energy">     -0.00417588 </i>
  </energy>
  <time name="totalsc"> 1419.62 1423.02</time>
 </calculation>
000 </i>
    <i name="Edipol_quadrupol">      0.00000000 </i>
    <i name="Eion">      0.00000000 </i>
   </dipole>
   <energy>
    <i name="alphaZ">    982.98536219 </i>
    <i name="ewald"> 112545.11500703 </i>
    <i name="hartreedc">-140148.69996291 </i>
    <i name="XCdc">   -999.11919178 </i>
    <i name="pawpsdc">  22919.13353278 </i>
    <i name="pawaedc"> -20903.84959481 </i>
    <i name="eentropy">     -0.00530680 </i>
    <i name="bandstr">  -1308.51166451 </i>
    <i name="atom">  26755.39719902 </i>
    <i name="e_fr_energy">   -157.55461979 </i>
    <i name="e_wo_entrp">   -157.54931299 </i>
    <  <structure>
   <crystal>
    <varray name="basis" >
     <v>       <structure>
   <crystal>
    <varray name="basis" >
     <v>       7.91200018       0.00000000       0.00000000 </v>
     <v>       0.00000000       7.91200018       0.00000000 </v>
     <v>       0.00000000       0.00000000      23.93400002 </v>
    </varray>
    <i name="volume">   1498.26234176 </i>
    <varray name="rec_basis" >
     <v>       0.12639029       0.00000000       0.00000000 </v>
     <v>       0.00000000       0.12639029       0.00000000 </v>
     <v>       0.00000000       0.00000000       0.04178157 </v>
    </varray>
   </crystal>
   <varray name="positions" >
    <v>       0.00000000       0.25000000       0.00000000 </v>
    <v>       0.25000000       0.00000000       0.00000000 </v>
    <v>       0.50000000       0.25000000       0.00000000 </v>
    <v>       0.75000000       0.00000000       0.00000000 </v>
    <v>       0.00000000       0.75000000       0.00000000 </v>
    <v>       0.25000000       0.50000000       0.00000000 </v>
    <v>       0.50000000       0.75000000       0.00000000 </v>
    <v>       0.75000000       0.50000000       0.00000000 </v>
    <v>       0.00000000       0.00000000       0.08264000 </v>
    <v>       0.25000000       0.25000000       0.08264000 </v>
    <v>       0.50000000       0.00000000       0.08264000 </v>
    <v>       0.75000000       0.25000000       0.08264000 </v>
    <v>       0.00000000       0.50000000       0.08264000 </v>
    <v>       0.25000000       0.75000000       0.08264000 </v>
    <v>       0.50000000       0.50000000       0.08264000 </v>
    <v>       0.75000000       0.75000000       0.08264000 </v>
    <v>       0.00000000       0.25001047       0.16424661 </v>
    <v>       0.24935473       0.00032284       0.16450255 </v>
    <v>       0.50000000       0.24995379       0.16538517 </v>
    <v>       0.75064527       0.00032284       0.16450255 </v>
    <v>       0.00000000       0.74997157       0.16469895 </v>
    <v>       0.24933690       0.49970313       0.16450287 </v>
    <v>       0.50000000       0.74999305       0.16555472 </v>
    <v>       0.75066310       0.49970313       0.16450287 </v>
    <v>       0.00000000       0.00127670       0.24644259 </v>
    <v>       0.24491188       0.25000262       0.24637458 </v>
    <v>       0.50000000       0.01021095       0.24038321 </v>
    <v>       0.75508812       0.25000262       0.24637458 </v>
    <v>       0.00000000       0.49867926       0.24642685 </v>
    <v>       0.24338826       0.74996518       0.24630200 </v>
    <v>       0.75661174       0.74996518       0.24630200 </v>
    <v>       0.50000000       0.49732049       0.24618000 </v>
    <v>       0.50000000       0.91686178       0.32245319 </v>
   </varray>
  </structure>
  <varray name="forces" >
   <v>       0.00000000       0.03003352       0.11582265 </v>
   <v>      -0.00956422       0.00662045       0.17514050 </v>
   <v>       0.00000000      -0.02362032       0.15100216 </v>
   <v>       0.00956422       0.00662045       0.17514050 </v>
   <v>       0.00000000      -0.01840124       0.15540306 </v>
   <v>      -0.01946674      -0.00067310       0.17249851 </v>
   <v>       0.00000000      -0.00584861       0.10549845 </v>
   <v>       0.01946674      -0.00067310       0.17249851 </v>
   <v>       0.00000000      -0.01318881      -0.13668384 </v>
   <v>       0.03305630       0.01057110      -0.19421652 </v>
   <v>       0.00000000       0.00134445      -0.08302666 </v>
   <v>      -0.03305630       0.01057110      -0.19421652 </v>
   <v>       0.00000000       0.02844842      -0.12042654 </v>
   <v>       0.03400597       0.00781842      -0.14859382 </v>
   <v>       0.00000000       0.01152588      -0.07019304 </v>
   <v>      -0.03400597       0.00781842      -0.14859382 </v>
   <v>       0.00000000       0.02450174      -0.05468945 </v>
   <v>      -0.18966784      -0.01349694      -0.17164684 </v>
   <v>       0.00000000       0.31866670      -0.36164122 </v>
   <v>       0.18966784      -0.01349694      -0.17164684 </v>
   <v>       0.00000000      -0.03688327      -0.05083908 </v>
   <v>       0.01849747       0.02862644       0.00654389 </v>
   <v>       0.00000000      -0.13921807      -0.06951574 </v>
   <v>      -0.01849747       0.02862644       0.00654389 </v>
   <v>       0.00000000      -0.00001148      -0.00876441 </v>
   <v>       0.12670157       0.02945104       0.06612398 </v>
   <v>       0.00000000       2.82166816      -6.81863811 </v>
   <v>      -0.12670157       0.02945104       0.06612398 </v>
   <v>       0.00000000      -0.03919815      -0.04892003 </v>
   <v>       0.34085348       0.07583488       0.33523048 </v>
   <v>      -0.34085348       0.07583488       0.33523048 </v>
   <v>       0.00000000       0.14209693       0.10144515 </v>
   <v>       0.00000000      -3.39142041       6.71200629 </v>
  </varray>
  <varray name="stress" >
   <v>     -16.77367932       0.00000000       0.00000000 </v>
   <v>       0.00000000     -13.02116678      -7.59966225 </v>
   <v>    <energy>
   <i name="e_fr_energy">   -157.56032657 </i>
   <i name="e_wo_entrp">   -157.55768467 </i>
   <i name="e_0_energy">     -0.00528380 </i>
  </energy>
  <time name="totalsc"> 1419.61 1423.03</time>
 </calculation>
gy>
  <time name="totalsc"> 14   <time name="   <time name="dav">   71.28    <time name="   <time name="total">   76.07   76.25</time>
     <time name="total">   76.18   76.36</time>
   <dipole>
    <v name="dipole">      0.00000000       0.00000000      -0.13659483 </v>
    <i name="Tr[quadrupol]">  -3953.74796884 </i>
    <i name="Echarged">      0.00000000 </i>
    <i name="Edipol_quadrupol">      0.00000000 </i>
    <i name="Eion">      0.00000000 </i>
   </dipole>
   <energy>
    <i name="alphaZ">    982.94230817 </i>
    <i name="ewald"> 112416.48635113 </i>
    <i name="hartreedc">-140023.39956565 </i>
    <i name="XCdc">   -999.42411391 </i>
    <i name="pawpsdc">  22919.12597264 </i>
    <i name="pawaedc"> -20903.84198398 </i>
    <i name="eentropy">     -0.00544168 </i>
    <i name="bandstr">  -1305.02985006 </i>
    <i name="atom">  26755.39719902 </i>
    <i name="e_fr_energy">   -157.74912432 </i>
    <i name="e_wo_entrp">   -157.74368265 </i>
    <i name="e_0_ene   <time name="   <time name="diag">   12.64    <time name="   <time name="diis">   55.17   55.30</time>
   <time name="orth">    1.77    1.77</time>
   <time name="total">   74.21   74.40</time>
     <time name="total">   74.09   74.28</time>
   <dipole>
    <v name="dipole">      0.00000000       0.00000000       0.17446998 </v>
    <i name="Tr[quadrupol]">  -3953.30688308 </i>
    <i name="Echarged">      0.00000000 </i>
    <i name="Edipol_quadrupol">      0.00000000 </i>
    <i name="Eion">      0.00000000 </i>
   </dipole>
   <energy>
    <i name="e_fr_energy">   -162.95175535 </i>
    <i name="e_wo_entrp">   -162.94839458 </i>
    <i name="e_0_ene   <time name="   <time name="diag">   12.88    <time name="   <time name="   <time name="diis">   58.21    <time name="   <time name="orth">    1.80    <time name="   <time name="total">   77.30   77.48</time>
   <dipole>
    <time name="total">   77.27   77.46</time>
   <dipole>
    <v name="dipole">      0.00000000       0.00000000      -0.16475068 </v>
    <i name="Tr[quadrupol]">  -3964.26764171 </i>
    <i name="Echarged">      0.00000000 </i>
    <i name="Edipol_quadrupol">      0.00000000 </i>
    <i name="Eion">      0.00000000 </i>
   </dipole>
[...]
       <r>    1.4610    0.0000 </r>
       <r>    1.4732    0.0000 </r>
       <r>    1.47  <dos>
   <i name="efermi">     -1.79965180 </i>
   <total>
    <array>
     <dimension dim="1">gridpoints</dimension>
     <dimension dim="2">spin</dimension>
     <field>energy</field>
     <field>total</field>
     <field>integrated</field>
     <set>
      <set comment="spin 1">
       <r>    -8.5585     0.0000     0.0000 </r>
       <r>    -8.5150     0.0000     0.0000 </r>
       <r>    -8.4716     0.0000     0.0000 </r>
       <r>    -8.4281     0.0000     0.0000 </r>
       <r>    -8.3847     0.0000     0.0000 </r>
       <r>    -8.3413     0.0000     0.0000 </r>
       <r>    -8.2978     0.0000     0.0000 </r>
       <r>    -8.2544     0.0000     0.0000 </r>
       <r>   <dos>
   <i name="efermi">     -1.79928862 </i>
   <total>
    <array>
     <dimension dim="1">gridpoints</dimension>
     <dimension dim="2">spin</dimension>
     <field>energy</field>
     <field>total</field>
     <field>integrated</field>
     <set>
      <set comment="spin 1">
       <r>    -8.5588     0.0000     0.0000 </r>
       <r>    -8.5154     0.0000     0.0000 </r>
       <r>    -8.4719     0.0000     0.0000 </r>
       <r>    -8.4285     0.0000     0.0000 </r>
       <r>    -8.3851     0.0000     0.0000 </r>
       <r>    -8.3417     0.0000     0.0000 </r>
       <r>    -8.2982     0.0000     0.0000 </r>
       <r>    -8.2548     0.0000     0.0000 </r>
       <r>    -8.2114     0.0000     0.0000 </r>
       <r>    -8.1679     0.0000     0.0000 </r>
       <r>    -8.1245     0.0000     0.0000 </r>
       <r>    -8.0811     0.0000     0.0000 </r>
       <r>    -8.0377     0.0000     0.0000 </r>
       <r>    -7.9942     0.0000     0.0000 </r>
       <r>    -7.9508     0.7105     0.0309 </r>
       <r>    -7.9074     2.8513     0.1547 </r>
       <r>    -7.8639     2.8862     0.2800 </r>
       <r>    -7.8205     0.0284     0.2813 </r>
       <r>    -7.7771     2.8611     0.4055 </r>
       <r>    -7.7337     5.7606     0.6557 </r>
       <r>    -7.6902     0.0127     0.6562 </r>
       <r>    -7.6468     0.0807     0.6598 </r>
       <r>    -7.6034     2.8137     0.7820 </r>
       <r>    -7.5599     3.1418     0.9184 </r>
       <r>    -7.5165     5.4768     1.1562 </r>
       <r>    -7.4731     0.0000     1.1563 </r>
       <r>    -7.4296     5.1560     1.3802 </r>
       <r>    -7.3862     0.6005     1.4062 </r>
       <r>    -7.3428     0.0013     1.4063 </r>
       <r>    -7.2994     1.8420     1.4863 </r>
       <r>    -7.2559     8.1596     1.8407 </r>
       <r>    -7.2125     1.5313     1.9072 </r>
       <r>    -7.1691     3.8954     2.0763 </r>
       <r>    -7.1256     1.8400     2.1562 </r>
       <r>    -7.0822     0.0000     2.1563 </r>
       <r>    -7.0388     2.3492     2.2583 </r>
       <r>    -6.9954     3.3994     2.4059 </r>
       <r>    -6.9519     3.7299     2.5679 </r>
       <r>    -6.9085     4.9128     2.7813 </r>
       <r>    -6.8651     5.8195     3.0340 </r>
       <r>    -6.8216     2.2195     3.1304 </r>
       <r>    -6.7782     2.4743     3.2378 </r>
       <r>    -6.7348     3.8566     3.4053 </r>
       <r>    -6.6914     0.5223     3.4280 </r>
       <r>    -6.6479     4.7723     3.6353 </r>
       <r>    -6.6045    10.3629     4.0853 </r>
       <r>    -6.5611     8.2141     4.4421 </r>
       <r>    -6.5176    12.7601     4.9962 </r>
       <r>    -6.4742     7.8443     5.3369 </r>
       <r>    -6.4308    12.7989     5.8927 </r>
       <r>    -6.3873    29.7431     7.1844 </r>
       <r>    -6.3439    36.9110     8.7875 </r>
       <r>    -6.3005    43.8499    10.6918 </r>
       <r>    -6.2571    43.5227    12.5820 </r>
       <r>    -6.2136    66.6325    15.4758 </r>
       <r>    -6.1702    46.2289    17.4835 </r>
       <r>    -6.1268    54.0508    19.8309 </r>
       <r>    -6.0833    51.4870    22.0669 </r>
       <r>    -6.0399    58.9713    24.6280 </r>
       <r>    -5.9965    58.7859    27.1810 </r>
       <r>    -5.9531    53.9317    29.5232 </r>
       <r>    -5.9096    67.2165    32.4424 </r>
       <r>    -5.8662    82.7465    36.0360 </r>
       <r>    -5.8228    62.7222    38.7600 </r>
       <r>    -5.7793    36.2217    40.3330 </r>
       <r>    -5.7359    54.5486    42.7020 </r>
       <r>    -5.6925    45.5220    44.6790 </r>
       <r>    -5.6491    54.6946    47.0544 </r>
       <r>    -5.6056    50.1229    49.2312 </r>
       <r>    -5.5622    62.0974    51.9280 </r>
       <r>    -5.5188    55.3971    54.3339 </r>
       <r>    -5.4753    74.8893    57.5863 </r>
       <r>    -5.4319    70.8971    60.6653 </r>
       <r>    -5.3885    79.2954    64.1090 </r>
       <r>    -5.3450    72.3452    67.2509 </r>
       <r>    -5.3016    52.6459    69.5373 </r>
       <r>    -5.2582    41.7416    71.3501 </r>
       <r>    -5.2148    34.3635    72.8424 </r>
       <r>    -5.1713    61.0068    75.4919 </r>
       <r>    -5.1279    52.1064    77.7549 </r>
       <r>    -5.0845    87.5693    81.5579 </r>
       <r>    -5.0410    74.2203    84.7813 </r>
       <r>    -4.9976    58.0817    87.3037 </r>
       <r>    -4.9542    70.2382    90.3541 </r>
       <r>    -4.9108    61.8870    93.0418 </r>
       <r>    -4.8673    45.8069    95.0311 </r>
       <r>    -4.8239    49.1098    97.1639 </r>
       <r>    -4.7805    53.8208    99.5013 </r>
       <r>    -4.7370    47.4133   101.5605 </r>
       <r>    -4.6936    36.8419   103.1605 </r>
       <r>    -4.6502    52.1000   105.4231 </r>
       <r>    -4.6067    55.0850   107.8154 </r>
       <r>    -4.5633    50.7723   110.0204 </r>
       <r>    -4.5199    70.5913   113.0862 </r>
       <r>    -4.4765    86.6546   116.8495 </r>
       <r>    -4.4330    73.2718   120.0316 </r>
       <r>    -4.3896    63.9701   122.8098 </r>
       <r>    -4.3462    62.6076   125.5288 </r>
       <r>    -4.3027    47.0408   127.5718 </r>
       <r>    -4.2593    53.6154   129.9002 </r>
       <r>    -4.2159    68.2618   132.8648 </r>
       <r>    -4.1725    86.9135   136.6394 </r>
       <r>    -4.1290   113.5038   141.5688 </r>
       <r>    -4.0856   119.9211   146.7768 </r>
       <r>    -4.0422   106.6122   151.4069 </r>
       <r>    -3.9987    82.4750   154.9887 </r>
       <r>    -3.9553    73.9710   158.2012 </r>
       <r>    -3.9119    79.1344   161.6380 </r>
       <r>    -3.8685    97.9492   165.8918 </r>
       <r>    -3.8250    87.0232   169.6712 </r>
       <r>    -3.7816    75.2616   172.9397 </r>
       <r>    -3.7382    67.4362   175.8685 </r>
       <r>    -3.6947    51.9479   178.1245 </r>
       <r>    -3.6513    71.1522   181.2146 </r>
       <r>    -3.6079    49.0247   183.3437 </r>
       <r>    -3.5644    56.5820   185.8010 </r>
       <r>    -3.5210    59.0298   188.3646 </r>
       <r>    -3.4776    65.2918   191.2002 </r>
       <r>    -3.4342    70.5251   194.2630 </r>
       <r>    -3.3907    69.9659   197.3016 </r>
       <r>    -3.3473    80.8605   200.8133 </r>
       <r>    -3.3039   100.1841   205.1642 </r>
       <r>    -3.2604    89.6353   209.0570 </r>
       <r>    -3.2170    89.0589   212.9248 </r>
       <r>    -3.1736    81.0093   216.4430 </r>
       <r>    -3.1302    82.6566   220.0327 </r>
       <r>    -3.0867    73.4300   223.2217 </r>
       <r>    -3.0433    68.0642   226.1776 </r>
       <r>    -2.9999    69.0015   229.1743 </r>
       <r>    -2.9564    74.8951   232.4270 </r>
       <r>    -2.9130    71.7443   235.5428 </r>
       <r>    -2.8696    71.3853   238.6430 </r>
       <r>    -2.8262    64.6079   241.4488 </r>
       <r>    -2.7827    80.9799   244.9657 </r>
       <r>    -2.7393    86.9377   248.7414 </r>
       <r>    -2.6959    83.0796   252.3495 </r>
       <r>    -2.6524    86.1514   256.0909 </r>
       <r>    -2.6090    90.4823   260.0205 </r>
       <r>    -2.5656    80.8338   263.5311 </r>
       <r>    -2.5221    63.0029   266.2672 </r>
       <r>    -2.4787    82.2690   269.8401 </r>
       <r>    -2.4353    82.5875   273.4268 </r>
       <r>    -2.3919    90.0711   277.3385 </r>
       <r>    -2.3484    69.3040   280.3484 </r>
       <r>    -2.3050    93.3293   284.4016 </r>
       <r>    -2.2616    97.4764   288.6349 </r>
       <r>    -2.2181    95.5715   292.7855 </r>
       <r>    -2.1747   117.9845   297.9095 </r>
       <r>    -2.1313    83.0425   301.5159 </r>
       <r>    -2.0879    77.2277   304.8699 </r>
       <r>    -2.0444    74.6918   308.1137 </r>
       <r>    -2.0010    73.6936   311.3141 </r>
       <r>    -1.9576    97.8568   315.5640 </r>
       <r>    -1.9141    90.5520   319.4966 </r>
       <r>    -1.8707    78.7706   322.9175 </r>
       <r>    -1.8273    95.6823   327.0729 </r>
       <r>    -1.7838   102.4944   331.5242 </r>
       <r>    -1.7404    87.0265   335.3037 </r>
       <r>    -1.6970    74.6871   338.5473 </r>
       <r>    -1.6536    46.0155   340.5457 </r>
       <r>    -1.6101    36.7917   342.1435 </r>
       <r>    -1.5667    27.4112   343.3340 </r>
       <r>    -1.5233    20.9086   344.2420 </r>
       <r>    -1.4798    21.3739   345.1703 </r>
       <r>    -1.4364    21.7949   346.1168 </r>
       <r>    -1.3930    11.7176   346.6257 </r>
       <r>    -1.3496    11.0706   347.1065 </r>
       <r>    -1.3061    12.0818   347.6312 </r>
       <r>    -1.2627     8.0639   347.9814 </r>
       <r>    -1.2193     6.3721   348.2581 </r>
       <r>    -1.1758     2.7108   348.3759 </r>
       <r>    -1.1324    12.5024   348.9188 </r>
       <r>    -1.0890     4.2485   349.1033 </r>
       <r>    -1.0456    11.4416   349.6002 </r>
       <r>    -1.0021     7.6999   349.9346 </r>
       <r>    -0.9587    15.8075   350.6211 </r>
       <r>    -0.9153    15.0501   351.2748 </r>
       <r>    -0.8718     4.4668   351.4688 </r>
       <r>    -0.8284     2.4461   351.5750 </r>
       <r>    -0.7850    11.2947   352.0655 </r>
       <r>    -0.7415     9.2735   352.4682 </r>
       <r>    -0.6981     4.4409   352.6611 </r>
       <r>    -0.6547    21.3322   353.5875 </r>
       <r>    -0.6113     6.5500   353.8720 </r>
       <r>    -0.5678     0.8191   353.9076 </r>
       <r>    -0.5244     2.7279   354.0261 </r>
       <r>    -0.4810    19.8310   354.8873 </r>
       <r>    -0.4375     8.3546   355.2501 </r>
       <r>    -0.3941     7.4296   355.5728 </r>
       <r>    -0.3507     6.9990   355.8768 </r>
       <r>    -0.3073    12.3651   356.4138 </r>
       <r>    -0.2638    10.3873   356.8649 </r>
       <r>    -0.2204     6.1988   357.1341 </r>
       <r>    -0.1770    16.2764   357.8410 </r>
       <r>    -0.1335    11.6425   358.3466 </r>
       <r>    -0.0901     0.6938   358.3767 </r>
       <r>    -0.0467     4.1745   358.5580 </r>
       <r>    -0.0033     1.6280   358.6287 </r>
       <r>     0.0402    16.7426   359.3558 </r>
       <r>     0.0836     9.9039   359.7859 </r>
       <r>     0.1270    16.4570   360.5006 </r>
       <r>     0.1705     9.1053   360.8961 </r>
       <r>     0.2139    17.9587   361.6760 </r>
       <r>     0.2573     6.7968   361.9712 </r>
       <r>     0.3008    20.4819   362.8607 </r>
       <r>     0.3442     5.7343   363.1097 </r>
       <r>     0.3876    11.4610   363.6075 </r>
       <r>     0.4310     3.2644   363.7493 </r>
       <r>     0.4745     8.8794   364.1349 </r>
       <r>     0.5179    11.3301   364.6269 </r>
       <r>     0.5613     5.7641   364.8773 </r>
       <r>     0.6048    14.8950   365.5241 </r>
       <r>     0.6482     5.4524   365.7609 </r>
       <r>     0.6916    15.2286   366.4223 </r>
       <r>     0.7350     3.6187   366.5795 </r>
       <r>     0.7785    13.9242   367.1842 </r>
       <r>     0.8219     8.2637   367.5431 </r>
       <r>     0.8653    21.4145   368.4731 </r>
       <r>     0.9088     5.3457   368.7052 </r>
       <r>     0.9522    10.3632   369.1553 </r>
       <r>     0.9956    16.7918   369.8846 </r>
       <r>     1.0390    20.0936   370.7572 </r>
       <r>     1.0825     5.5578   370.9986 </r>
       <r>     1.1259    15.0697   371.6530 </r>
       <r>     1.1693     1.4058   371.7141 </r>
       <r>     1.2128     0.8265   371.7500 </r>
       <r>     1.2562     0.0317   371.7514 </r>
       <r>     1.2996    14.9508   372.4007 </r>
       <r>     1.3431    13.7292   372.9969 </r>
       <r>     1.3865    13.9074   373.6009 </r>
       <r>     1.4299    10.1899   374.0435 </r>
       <r>     1.4733     7.1904   374.3557 </r>
       <r>     1.5168    15.4147   375.0252 </r>
       <r>     1.5602    11.0816   375.5064 </r>
       <r>     1.6036    14.8787   376.1526 </r>
       <r>     1.6471     5.6439   376.3977 </r>
       <r>     1.6905     8.5416   376.7687 </r>
       <r>     1.7339     9.4325   377.1783 </r>
       <r>     1.7773     7.2162   377.4917 </r>
       <r>     1.8208    10.7993   377.9607 </r>
       <r>     1.8642    15.2103   378.6213 </r>
       <r>     1.9076     5.7407   378.8706 </r>
       <r>     1.9511     9.6511   379.2897 </r>
       <r>     1.9945     8.3849   379.6539 </r>
       <r>     2.0379    10.0812   380.0917 </r>
       <r>     2.0814     7.3067   380.4090 </r>
       <r>     2.1248    22.8413   381.4010 </r>
       <r>     2.1682    15.2453   382.0631 </r>
       <r>     2.2116     7.7411   382.3993 </r>
       <r>     2.2551    13.7262   382.9954 </r>
       <r>     2.2985    13.5588   383.5843 </r>
       <r>     2.3419     7.1953   383.8968 </r>
       <r>     2.3854     3.6843   384.0568 </r>
       <r>     2.4288    15.6485   384.7364 </r>
       <r>     2.4722     6.8913   385.0357 </r>
       <r>     2.5156    14.7227   385.6750 </r>
       <r>     2.5591    21.7272   386.6186 </r>
       <r>     2.6025    16.0335   387.3150 </r>
       <r>     2.6459     2.2797   387.4140 </r>
       <r>     2.6894     4.4101   387.6055 </r>
       <r>     2.7328     6.5389   387.8895 </r>
       <r>     2.7762     6.3625   388.1658 </r>
       <r>     2.8196    14.2713   388.7856 </r>
       <r>     2.8631     6.8835   389.0845 </r>
       <r>     2.9065    21.1349   390.0024 </r>
       <r>     2.9499     7.9425   390.3473 </r>
       <r>     2.9934    15.6781   391.0282 </r>
       <r>     3.0368     9.2535   391.4301 </r>
       <r>     3.0802    21.2362   392.3524 </r>
       <r>     3.1237    13.5615   392.9413 </r>
       <r>     3.1671     7.2804   393.2575 </r>
       <r>     3.2105    13.3176   393.8359 </r>
       <r>     3.2539     0.3289   393.8502 </r>
       <r>     3.2974     9.3935   394.2581 </r>
       <r>     3.3408    15.0638   394.9123 </r>
       <r>     3.3842    10.8953   395.3855 </r>
       <r>     3.4277     9.4742   395.7970 </r>
       <r>     3.4711    16.9743   396.5341 </r>
       <r>     3.5145     9.9828   396.9677 </r>
       <r>     3.5579    16.2440   397.6732 </r>
       <r>     3.6014    16.8770   398.4061 </r>
       <r>     3.6448    15.7823   399.0915 </r>
       <r>     3.6882     9.9419   399.5233 </r>
       <r>     3.7317     3.2662   399.6651 </r>
       <r>     3.7751     2.8812   399.7903 </r>
       <r>     3.8185     2.8140   399.9125 </r>
       <r>     3.8619     1.3048   399.9691 </r>
       <r>     3.9054     0.7103   400.0000 </r>
       <r>     3.9488     0.0000   400.0000 </r>
       <r>     3.9922     0.0000   400.0000 </r>
       <r>     4.0357     0.0000   400.0000 </r>
       <r>     4.0791     0.0000   400.0000 </r>
       <r>     4.1225     0.0000   400.0000 </r>
       <r>     4.1660     0.0000   400.0000 </r>
       <r>     4.2094     0.0000   400.0000 </r>
       <r>     4.2528     0.0000   400.0000 </r>
       <r>     4.2962     0.0000   400.0000 </r>
       <r>     4.3397     0.0000   400.0000 </r>
       <r>     4.3831     0.0000   400.0000 </r>
       <r>     4.4265     0.0000   400.0000 </r>
       <r>     4.4700     0.0000   400.0000 </r>
      </set>
     </set>
    </array>
   </total>
  </dos>
 </calculation>
 <structure name="finalpos" >
  <crystal>
   <varray name="basis" >
    <v>       7.91200018       0.00000000       0.00000000 </v>
    <v>       0.00000000       7.91200018       0.00000000 </v>
    <v>       0.00000000       0.00000000      23.93400002 </v>
   </varray>
   <i name="volume">   1498.26234176 </i>
   <varray name="rec_basis" >
    <v>       0.12639029       0.00000000       0.00000000 </v>
    <v>       0.00000000       0.12639029       0.00000000 </v>
    <v>       0.00000000       0.00000000       0.04178157 </v>
   </varray>
  </crystal>
  <varray name="positions" >
   <v>       0.00000000       0.25000000       0.00000000 </v>
   <v>       0.25000000       0.00000000       0.00000000 </v>
   <v>       0.50000000       0.25000000       0.00000000 </v>
   <v>       0.75000000       0.00000000       0.00000000 </v>
   <v>       0.00000000       0.75000000       0.00000000 </v>
   <v>       0.25000000       0.50000000       0.00000000 </v>
   <v>       0.50000000       0.75000000       0.00000000 </v>
   <v>       0.75000000       0.50000000       0.00000000 </v>
   <v>       0.00000000       0.00000000       0.08264000 </v>
   <v>       0.25000000       0.25000000       0.08264000 </v>
   <v>       0.50000000       0.00000000       0.08264000 </v>
   <v>       0.75000000       0.25000000       0.08264000 </v>
   <v>       0.00000000       0.50000000       0.08264000 </v>
   <v>       0.25000000       0.75000000       0.08264000 </v>
   <v>       0.50000000       0.50000000       0.08264000 </v>
   <v>       0.75000000       0.75000000       0.08264000 </v>
   <v>       0.00000000       0.25384777       0.16437331 </v>
   <v>       0.24648189       0.00160617       0.16392368 </v>
   <v>       0.50000000       0.25856258       0.16328943 </v>
   <v>       0.75351811       0.00160617       0.16392368 </v>
   <v>       0.00000000       0.75120137       0.16632699 </v>
   <v>       0.24907591       0.50442867       0.16539186 </v>
   <v>       0.50000000       0.75151363       0.16529006 </v>
   <v>       0.75092409       0.50442867       0.16539186 </v>
   <v>       0.00000000       0.00341814       0.24625193 </v>
   <v>       0.24840783       0.25503198       0.24604962 </v>
   <v>       0.50000000       0.02366351       0.24009981 </v>
   <v>       0.75159217       0.25503198       0.24604962 </v>
   <v>       0.00000000       0.50384746       0.24699280 </v>
   <v>       0.25151904       0.75634360       0.24907539 </v>
   <v>       0.74848096       0.75634360       0.24907539 </v>
   <v>       0.50000000       0.50548368       0.24866230 </v>
   <v>       0.50000000       0.82948263       0.32371464 </v>
  </varray>
  <varray name="selective"  type="logical" >
   <v type="logical" >  F  F  F </v>
   <v type="logical" >  F  F  F </v>
   <v type="logical" >  F  F  F </v>
   <v type="logical" >  F  F  F </v>
   <v type="logical" >  F  F  F </v>
   <v type="logical" >  F  F  F </v>
   <v type="logical" >  F  F  F </v>
   <v type="logical" >  F  F  F </v>
   <v type="logical" >  F  F  F </v>
   <v type="logical" >  F  F  F </v>
   <v type="logical" >  F  F  F </v>
   <v type="logical" >  F  F  F </v>
   <v type="logical" >  F  F  F </v>
   <v type="logical" >  F  F  F </v>
   <v type="logical" >  F  F  F </v>
   <v type="logical" >  F  F  F </v>
   <v type="logical" >  T  T  T </v>
   <v type="logical" >  T  T  T </v>
   <v type="logical" >  T  T  T </v>
   <v type="logical" >  T  T  T </v>
   <v type="logical" >  T  T  T </v>
   <v type="logical" >  T  T  T </v>
   <v type="logical" >  T  T  T </v>
   <v type="logical" >  T  T  T </v>
   <v type="logical" >  T  T  T </v>
   <v type="logical" >  T  T  T </v>
   <v type="logical" >  T  T  T </v>
   <v type="logical" >  T  T  T </v>
   <v type="logical" >  T  T  T </v>
   <v type="logical" >  T  T  T </v>
   <v type="logical" >  T  T  T </v>
   <v type="logical" >  T  T  T </v>
   <v type="logical" >  T  T  T </v>
  </varray>
  <nose>
   <v>      -3.00000000       0.00000000       0.00010000       0.00010000 </v>
  </nose>
 </structure>
</modeling>
