 running on   20 total cores
 distrk:  each k-point on   20 cores,    1 groups
 distr:  one band on    1 cores,   20 groups
 using from now: INCAR     
 vasp.5.4.1 05Feb16 (build Sep 02 2018 21:45:25) complex                        
  
 POSCAR found type information on POSCAR  Pt
 POSCAR found :  1 types and      13 ions
 scaLAPACK will be used

 ----------------------------------------------------------------------------- 
|                                                                             |
|           W    W    AA    RRRRR   N    N  II  N    N   GGGG   !!!           |
|           W    W   A  A   R    R  NN   N  II  NN   N  G    G  !!!           |
|           W    W  A    A  R    R  N N  N  II  N N  N  G       !!!           |
|           W WW W  AAAAAA  RRRRR   N  N N  II  N  N N  G  GGG   !            |
|           WW  WW  A    A  R   R   N   NN  II  N   NN  G    G                |
|           W    W  A    A  R    R  N    N  II  N    N   GGGG   !!!           |
|                                                                             |
|      For optimal performance we recommend to set                            |
|        NCORE= 4 - approx SQRT( number of cores)                             |
|      NCORE specifies how many cores store one orbital (NPAR=cpu/NCORE).     |
|      This setting can  greatly improve the performance of VASP for DFT.     |
|      The default, NPAR=number of cores might be grossly inefficient         |
|      on modern multi-core architectures or massively parallel machines.     |
|      Do your own testing !!!!                                               |
|      Unfortunately you need to use the default for GW and RPA calculations. |
|      (for HF NCORE is supported but not extensively tested yet)             |
|                                                                             |
 ----------------------------------------------------------------------------- 

 LDA part: xc-table for Ceperly-Alder, standard interpolation
 POSCAR, INCAR and KPOINTS ok, starting setup
 WARNING: small aliasing (wrap around) errors must be expected
 FFT: planning ...
 WAVECAR not read
 entering main loop
       N       E                     dE             d eps       ncg     rms          rms(c)
DAV:   1     0.104549004799E+04    0.10455E+04   -0.24721E+04   160   0.911E+02
DAV:   2     0.469544174595E+03   -0.57595E+03   -0.54238E+03   280   0.108E+02
DAV:   3     0.435949462348E+02   -0.42595E+03   -0.41935E+03   260   0.112E+02
DAV:   4    -0.480314496777E+02   -0.91626E+02   -0.88593E+02   240   0.740E+01
DAV:   5    -0.595828418764E+02   -0.11551E+02   -0.11164E+02   240   0.250E+01    0.126E+01
DAV:   6    -0.571001435310E+02    0.24827E+01   -0.23750E+01   240   0.234E+01    0.866E+00
DAV:   7    -0.587860460538E+02   -0.16859E+01   -0.25159E+01   280   0.338E+01    0.118E+01
DAV:   8    -0.568164980387E+02    0.19695E+01   -0.16709E+01   300   0.223E+01    0.727E+00
DAV:   9    -0.559844465203E+02    0.83205E+00   -0.53629E+00   280   0.126E+01    0.415E+00
DAV:  10    -0.558649256896E+02    0.11952E+00   -0.19319E+00   260   0.644E+00    0.282E+00
DAV:  11    -0.558287987495E+02    0.36127E-01   -0.13625E+00   280   0.452E+00    0.254E+00
DAV:  12    -0.557901954593E+02    0.38603E-01   -0.78343E-01   280   0.413E+00    0.182E+00
DAV:  13    -0.557641619773E+02    0.26033E-01   -0.55737E-01   300   0.335E+00    0.129E+00
DAV:  14    -0.557428335576E+02    0.21328E-01   -0.18097E-01   280   0.201E+00    0.639E-01
DAV:  15    -0.557384409091E+02    0.43926E-02   -0.45005E-02   280   0.104E+00    0.399E-01
DAV:  16    -0.557344449599E+02    0.39959E-02   -0.15835E-02   280   0.753E-01    0.178E-01
DAV:  17    -0.557323924068E+02    0.20526E-02   -0.41652E-03   240   0.399E-01    0.136E-01
DAV:  18    -0.557312015738E+02    0.11908E-02   -0.20214E-03   260   0.286E-01    0.705E-02
DAV:  19    -0.557305412621E+02    0.66031E-03   -0.10664E-03   220   0.206E-01    0.560E-02
DAV:  20    -0.557308873871E+02   -0.34612E-03   -0.75317E-04   220   0.145E-01    0.376E-02
DAV:  21    -0.557318865196E+02   -0.99913E-03   -0.36255E-04   240   0.110E-01    0.277E-02
DAV:  22    -0.557345237116E+02   -0.26372E-02   -0.11121E-03   200   0.109E-01    0.254E-02
DAV:  23    -0.557357010427E+02   -0.11773E-02   -0.42062E-04   220   0.762E-02    0.160E-02
DAV:  24    -0.557369152645E+02   -0.12142E-02   -0.45113E-04   220   0.681E-02    0.112E-02
DAV:  25    -0.557375022375E+02   -0.58697E-03   -0.15070E-04   180   0.476E-02    0.519E-03
DAV:  26    -0.557380914210E+02   -0.58918E-03   -0.10509E-04   140   0.283E-02    0.371E-03
DAV:  27    -0.557384118476E+02   -0.32043E-03   -0.38040E-05   160   0.171E-02    0.301E-03
DAV:  28    -0.557385605246E+02   -0.14868E-03   -0.10940E-05   120   0.132E-02    0.208E-03
DAV:  29    -0.557386967144E+02   -0.13619E-03   -0.19316E-05   140   0.111E-02    0.113E-03
DAV:  30    -0.557387740158E+02   -0.77301E-04   -0.95331E-06   100   0.796E-03    0.769E-04
DAV:  31    -0.557387926048E+02   -0.18589E-04   -0.38229E-06   140   0.746E-03    0.502E-04
DAV:  32    -0.557388014854E+02   -0.88805E-05   -0.24307E-06   100   0.566E-03
   1 F= -.55738801E+02 E0= -.55654638E+02  d E =-.557388E+02
 curvature:   0.00 expect dE= 0.000E+00 dE for cont linesearch  0.000E+00
 trial: gam= 0.00000 g(F)=  0.222E-03 g(S)=  0.000E+00 ort = 0.000E+00 (trialstep = 0.100E+01)
 search vector abs. value=  0.222E-03
 bond charge predicted
       N       E                     dE             d eps       ncg     rms          rms(c)
DAV:   1    -0.557390048620E+02   -0.21226E-03   -0.12867E-02   160   0.343E-01    0.244E-02
DAV:   2    -0.557391530922E+02   -0.14823E-03   -0.14325E-03   240   0.136E-01    0.131E-01
DAV:   3    -0.557390523868E+02    0.10071E-03   -0.14711E-03   200   0.123E-01    0.350E-02
DAV:   4    -0.557390238291E+02    0.28558E-04   -0.12475E-04   100   0.409E-02    0.137E-02
DAV:   5    -0.557390214148E+02    0.24142E-05   -0.29986E-05   100   0.266E-02
   2 F= -.55739021E+02 E0= -.55654886E+02  d E =-.219929E-03
 ZBRENT: can't locate minimum, use default step
 trial-energy change:   -0.000220  1 .order   -0.000216   -0.000222   -0.000211
 step:   4.0000(harm= 20.5900)  dis= 0.00162  next Energy=   -55.741082 (dE=-0.228E-02)
 bond charge predicted
       N       E                     dE             d eps       ncg     rms          rms(c)
DAV:   1    -0.557394643112E+02   -0.44048E-03   -0.11590E-01   160   0.103E+00    0.754E-02
DAV:   2    -0.557408489837E+02   -0.13847E-02   -0.13508E-02   240   0.412E-01    0.401E-01
DAV:   3    -0.557398783676E+02    0.97062E-03   -0.13721E-02   240   0.377E-01    0.103E-01
DAV:   4    -0.557396313065E+02    0.24706E-03   -0.11644E-03   200   0.120E-01    0.451E-02
DAV:   5    -0.557396070576E+02    0.24249E-04   -0.31152E-04   140   0.685E-02    0.442E-02
DAV:   6    -0.557395924543E+02    0.14603E-04   -0.24644E-04   140   0.615E-02    0.273E-02
DAV:   7    -0.557395896278E+02    0.28266E-05   -0.14013E-04   160   0.577E-02    0.216E-02
DAV:   8    -0.557395847694E+02    0.48584E-05   -0.52113E-05   100   0.484E-02
   3 F= -.55739585E+02 E0= -.55655556E+02  d E =-.783284E-03
 curvature:  -2.91 expect dE=-0.550E-03 dE for cont linesearch -0.415E-03
 ZBRENT: increasing intervall
 opt :  10.0000  next Energy=   -55.740453 (dE=-0.165E-02)
 bond charge predicted
       N       E                     dE             d eps       ncg     rms          rms(c)
DAV:   1    -0.557398494388E+02   -0.25981E-03   -0.46260E-01   160   0.206E+00    0.151E-01
DAV:   2    -0.557454597558E+02   -0.56103E-02   -0.55650E-02   240   0.840E-01    0.803E-01
DAV:   3    -0.557415924352E+02    0.38673E-02   -0.55808E-02   260   0.764E-01    0.215E-01
DAV:   4    -0.557405422612E+02    0.10502E-02   -0.48805E-03   200   0.245E-01    0.844E-02
DAV:   5    -0.557404285255E+02    0.11374E-03   -0.98899E-04   240   0.130E-01    0.750E-02
DAV:   6    -0.557403924652E+02    0.36060E-04   -0.82704E-04   160   0.104E-01    0.555E-02
DAV:   7    -0.557403826278E+02    0.98374E-05   -0.50013E-04   240   0.102E-01    0.424E-02
DAV:   8    -0.557403595838E+02    0.23044E-04   -0.17360E-04   140   0.828E-02    0.191E-02
DAV:   9    -0.557403560813E+02    0.35025E-05   -0.42315E-05   140   0.422E-02
   4 F= -.55740356E+02 E0= -.55656356E+02  d E =-.155460E-02
 curvature:  -6.09 expect dE=-0.194E-02 dE for cont linesearch -0.230E-03
 ZBRENT: increasing intervall
 opt :  22.0000  next Energy=   -55.740418 (dE=-0.162E-02)
 bond charge predicted
       N       E                     dE             d eps       ncg     rms          rms(c)
DAV:   1    -0.557384302133E+02    0.19294E-02   -0.18517E+00   160   0.411E+00    0.300E-01
DAV:   2    -0.557603076112E+02   -0.21877E-01   -0.21958E-01   240   0.169E+00    0.155E+00
DAV:   3    -0.557450529915E+02    0.15255E-01   -0.20588E-01   260   0.151E+00    0.407E-01
DAV:   4    -0.557411992875E+02    0.38537E-02   -0.18068E-02   200   0.469E-01    0.170E-01
DAV:   5    -0.557407622879E+02    0.43700E-03   -0.37448E-03   260   0.254E-01    0.144E-01
DAV:   6    -0.557406491477E+02    0.11314E-03   -0.32963E-03   300   0.205E-01    0.115E-01
DAV:   7    -0.557405873843E+02    0.61763E-04   -0.19966E-03   260   0.200E-01    0.817E-02
DAV:   8    -0.557405053891E+02    0.81995E-04   -0.71755E-04   260   0.159E-01    0.380E-02
DAV:   9    -0.557404884337E+02    0.16955E-04   -0.12324E-04   140   0.765E-02    0.224E-02
DAV:  10    -0.557404861612E+02    0.22725E-05   -0.46506E-05   120   0.415E-02
   5 F= -.55740486E+02 E0= -.55656693E+02  d E =-.168468E-02
 curvature:  -1.63 expect dE=-0.221E-02 dE for cont linesearch -0.325E-04
 trial: gam= 0.00000 g(F)=  0.136E-02 g(S)=  0.000E+00 ort =-0.665E-04 (trialstep = 0.848E+00)
 search vector abs. value=  0.136E-02
 bond charge predicted
       N       E                     dE             d eps       ncg     rms          rms(c)
DAV:   1    -0.557414610529E+02   -0.97262E-03   -0.57619E-02   160   0.729E-01    0.681E-02
DAV:   2    -0.557426270753E+02   -0.11660E-02   -0.10646E-02   240   0.387E-01    0.370E-01
DAV:   3    -0.557417796717E+02    0.84740E-03   -0.11949E-02   260   0.360E-01    0.113E-01
DAV:   4    -0.557415408142E+02    0.23886E-03   -0.13658E-03   200   0.130E-01    0.354E-02
DAV:   5    -0.557415088056E+02    0.32009E-04   -0.13110E-04   100   0.522E-02    0.173E-02
DAV:   6    -0.557415064006E+02    0.24050E-05   -0.40857E-05   140   0.430E-02
   6 F= -.55741506E+02 E0= -.55657842E+02  d E =-.102024E-02
 trial-energy change:   -0.001020  1 .order   -0.001001   -0.001152   -0.000850
 step:   3.2369(harm=  3.2369)  dis= 0.00375  next Energy=   -55.742684 (dE=-0.220E-02)
 bond charge predicted
       N       E                     dE             d eps       ncg     rms          rms(c)
DAV:   1    -0.557425130101E+02   -0.10042E-02   -0.45702E-01   160   0.205E+00    0.206E-01
DAV:   2    -0.557534352364E+02   -0.10922E-01   -0.99250E-02   240   0.117E+00    0.114E+00
DAV:   3    -0.557453451753E+02    0.80901E-02   -0.11206E-01   260   0.109E+00    0.330E-01
DAV:   4    -0.557430847220E+02    0.22605E-02   -0.11566E-02   200   0.379E-01    0.962E-02
DAV:   5    -0.557428346575E+02    0.25006E-03   -0.11761E-03   240   0.150E-01    0.621E-02
DAV:   6    -0.557428171059E+02    0.17552E-04   -0.69219E-04   180   0.109E-01    0.636E-02
DAV:   7    -0.557428094665E+02    0.76394E-05   -0.68854E-04   200   0.103E-01    0.510E-02
DAV:   8    -0.557427904033E+02    0.19063E-04   -0.31494E-04   140   0.827E-02    0.261E-02
DAV:   9    -0.557427809490E+02    0.94544E-05   -0.77871E-05   100   0.546E-02
   7 F= -.55742781E+02 E0= -.55659149E+02  d E =-.229479E-02
 curvature:  -1.62 expect dE=-0.227E-03 dE for cont linesearch -0.212E-05
 trial: gam= 0.07241 g(F)=  0.141E-03 g(S)=  0.000E+00 ort = 0.422E-04 (trialstep = 0.133E+01)
 search vector abs. value=  0.154E-03
 bond charge predicted
       N       E                     dE             d eps       ncg     rms          rms(c)
DAV:   1    -0.557429440436E+02   -0.15364E-03   -0.15538E-02   160   0.378E-01    0.239E-02
DAV:   2    -0.557430619430E+02   -0.11790E-03   -0.11106E-03   240   0.127E-01    0.110E-01
DAV:   3    -0.557429927387E+02    0.69204E-04   -0.11385E-03   200   0.118E-01    0.380E-02
DAV:   4    -0.557429691122E+02    0.23627E-04   -0.14823E-04   100   0.423E-02    0.141E-02
DAV:   5    -0.557429656168E+02    0.34953E-05   -0.22918E-05    80   0.270E-02
   8 F= -.55742966E+02 E0= -.55659377E+02  d E =-.184668E-03
 ZBRENT: can't locate minimum, use default step
 trial-energy change:   -0.000185  1 .order   -0.000186   -0.000190   -0.000182
 step:   5.3046(harm= 28.5611)  dis= 0.00193  next Energy=   -55.744832 (dE=-0.205E-02)
 bond charge predicted
       N       E                     dE             d eps       ncg     rms          rms(c)
DAV:   1    -0.557432980324E+02   -0.32892E-03   -0.14007E-01   160   0.113E+00    0.696E-02
DAV:   2    -0.557443770214E+02   -0.10790E-02   -0.10281E-02   240   0.383E-01    0.334E-01
DAV:   3    -0.557437128840E+02    0.66414E-03   -0.10246E-02   240   0.345E-01    0.104E-01
DAV:   4    -0.557435136349E+02    0.19925E-03   -0.11284E-03   220   0.111E-01    0.420E-02
DAV:   5    -0.557434847665E+02    0.28868E-04   -0.20708E-04   140   0.678E-02    0.348E-02
DAV:   6    -0.557434835522E+02    0.12143E-05   -0.21984E-04   140   0.600E-02    0.374E-02
DAV:   7    -0.557434799065E+02    0.36457E-05   -0.22393E-04   120   0.666E-02    0.298E-02
DAV:   8    -0.557434728459E+02    0.70606E-05   -0.10572E-04   100   0.550E-02    0.147E-02
DAV:   9    -0.557434718824E+02    0.96350E-06   -0.32938E-05    80   0.327E-02
   9 F= -.55743472E+02 E0= -.55660058E+02  d E =-.690933E-03
 curvature:  -4.14 expect dE=-0.510E-03 dE for cont linesearch -0.421E-03
 ZBRENT: increasing intervall
 opt :  13.2616  next Energy=   -55.744372 (dE=-0.159E-02)
 bond charge predicted
       N       E                     dE             d eps       ncg     rms          rms(c)
DAV:   1    -0.557435487317E+02   -0.75886E-04   -0.55901E-01   160   0.226E+00    0.139E-01
DAV:   2    -0.557478324831E+02   -0.42838E-02   -0.40969E-02   240   0.767E-01    0.669E-01
DAV:   3    -0.557452737624E+02    0.25587E-02   -0.41385E-02   240   0.680E-01    0.212E-01
DAV:   4    -0.557444126231E+02    0.86114E-03   -0.47087E-03   220   0.229E-01    0.763E-02
DAV:   5    -0.557442946209E+02    0.11800E-03   -0.65078E-04   260   0.127E-01    0.536E-02
DAV:   6    -0.557442878072E+02    0.68137E-05   -0.42291E-04   240   0.107E-01    0.563E-02
DAV:   7    -0.557443112741E+02   -0.23467E-04   -0.88085E-04   160   0.112E-01    0.777E-02
DAV:   8    -0.557442625047E+02    0.48769E-04   -0.60554E-04   160   0.975E-02    0.279E-02
DAV:   9    -0.557442518425E+02    0.10662E-04   -0.97570E-05   100   0.466E-02    0.133E-02
DAV:  10    -0.557442512982E+02    0.54431E-06   -0.20504E-05    80   0.268E-02
  10 F= -.55744251E+02 E0= -.55661134E+02  d E =-.147035E-02
 curvature:  -8.85 expect dE=-0.134E-02 dE for cont linesearch -0.402E-03
 ZBRENT: increasing intervall
 opt :  29.1755  next Energy=   -55.744921 (dE=-0.214E-02)
 bond charge predicted
       N       E                     dE             d eps       ncg     rms          rms(c)
DAV:   1    -0.557420562140E+02    0.21956E-02   -0.22379E+00   160   0.452E+00    0.275E-01
DAV:   2    -0.557587006307E+02   -0.16644E-01   -0.15833E-01   240   0.154E+00    0.130E+00
DAV:   3    -0.557487366271E+02    0.99640E-02   -0.15757E-01   240   0.134E+00    0.413E-01
DAV:   4    -0.557455107989E+02    0.32258E-02   -0.18012E-02   220   0.447E-01    0.150E-01
DAV:   5    -0.557450591867E+02    0.45161E-03   -0.24750E-03   260   0.246E-01    0.106E-01
DAV:   6    -0.557450285375E+02    0.30649E-04   -0.15468E-03   300   0.214E-01    0.108E-01
DAV:   7    -0.557451374477E+02   -0.10891E-03   -0.34362E-03   280   0.222E-01    0.159E-01
DAV:   8    -0.557449380849E+02    0.19936E-03   -0.26091E-03   280   0.188E-01    0.601E-02
DAV:   9    -0.557448899235E+02    0.48161E-04   -0.41986E-04   220   0.876E-02    0.268E-02
DAV:  10    -0.557448831650E+02    0.67585E-05   -0.57591E-05   120   0.353E-02
  11 F= -.55744883E+02 E0= -.55662347E+02  d E =-.210222E-02
 curvature: -14.75 expect dE=-0.760E-02 dE for cont linesearch -0.474E-06
 trial: gam= 3.66945 g(F)=  0.515E-03 g(S)=  0.000E+00 ort = 0.222E-05 (trialstep = 0.408E+00)
 search vector abs. value=  0.260E-02
 bond charge predicted
       N       E                     dE             d eps       ncg     rms          rms(c)
DAV:   1    -0.557450545285E+02   -0.16461E-03   -0.24883E-02   160   0.475E-01    0.234E-02
DAV:   2    -0.557451348481E+02   -0.80320E-04   -0.77390E-04   240   0.119E-01    0.651E-02
DAV:   3    -0.557451096058E+02    0.25242E-04   -0.55178E-04   160   0.100E-01    0.384E-02
DAV:   4    -0.557450985236E+02    0.11082E-04   -0.15098E-04   100   0.441E-02    0.188E-02
DAV:   5    -0.557450955878E+02    0.29357E-05   -0.51469E-05   100   0.336E-02
  12 F= -.55745096E+02 E0= -.55662581E+02  d E =-.212423E-03
 ZBRENT: can't locate minimum, use default step
 trial-energy change:   -0.000212  1 .order   -0.000208   -0.000213   -0.000203
 step:   1.6301(harm=  8.7045)  dis= 0.00268  next Energy=   -55.747161 (dE=-0.228E-02)
 bond charge predicted
       N       E                     dE             d eps       ncg     rms          rms(c)
DAV:   1    -0.557454025746E+02   -0.30405E-03   -0.22508E-01   160   0.143E+00    0.639E-02
DAV:   2    -0.557460462265E+02   -0.64365E-03   -0.62747E-03   240   0.332E-01    0.186E-01
DAV:   3    -0.557458053126E+02    0.24091E-03   -0.38492E-03   240   0.255E-01    0.803E-02
DAV:   4    -0.557457324149E+02    0.72898E-04   -0.67814E-04   240   0.998E-02    0.443E-02
DAV:   5    -0.557457174195E+02    0.14995E-04   -0.26334E-04   120   0.715E-02    0.467E-02
DAV:   6    -0.557457193360E+02   -0.19165E-05   -0.41568E-04   160   0.728E-02    0.523E-02
DAV:   7    -0.557457106357E+02    0.87003E-05   -0.35179E-04   240   0.736E-02    0.279E-02
DAV:   8    -0.557456975951E+02    0.13041E-04   -0.68697E-05   120   0.541E-02    0.897E-03
DAV:   9    -0.557456966997E+02    0.89543E-06   -0.11135E-05    80   0.171E-02
  13 F= -.55745697E+02 E0= -.55663327E+02  d E =-.813535E-03
 curvature:  -5.91 expect dE=-0.258E-02 dE for cont linesearch -0.505E-03
 ZBRENT: increasing intervall
 opt :   4.0754  next Energy=   -55.746783 (dE=-0.190E-02)
 bond charge predicted
       N       E                     dE             d eps       ncg     rms          rms(c)
DAV:   1    -0.557455139536E+02    0.18364E-03   -0.89836E-01   160   0.285E+00    0.118E-01
DAV:   2    -0.557475916303E+02   -0.20777E-02   -0.20682E-02   240   0.649E-01    0.274E-01
DAV:   3    -0.557471440087E+02    0.44762E-03   -0.10496E-02   240   0.443E-01    0.172E-01
DAV:   4    -0.557468815522E+02    0.26246E-03   -0.30095E-03   260   0.203E-01    0.832E-02
DAV:   5    -0.557468039568E+02    0.77595E-04   -0.77673E-04   260   0.123E-01    0.706E-02
DAV:   6    -0.557468510053E+02   -0.47049E-04   -0.14013E-03   260   0.130E-01    0.114E-01
DAV:   7    -0.557467947070E+02    0.56298E-04   -0.14038E-03   260   0.130E-01    0.542E-02
DAV:   8    -0.557467418044E+02    0.52903E-04   -0.28056E-04   120   0.950E-02    0.170E-02
DAV:   9    -0.557467383705E+02    0.34339E-05   -0.45744E-05   100   0.341E-02
  14 F= -.55746738E+02 E0= -.55664642E+02  d E =-.185521E-02
 curvature: -12.71 expect dE=-0.414E-02 dE for cont linesearch -0.699E-03
 ZBRENT: increasing intervall
 opt :   8.9658  next Energy=   -55.748132 (dE=-0.325E-02)
 bond charge predicted
       N       E                     dE             d eps       ncg     rms          rms(c)
DAV:   1    -0.557431887122E+02    0.35531E-02   -0.35934E+00   160   0.571E+00    0.235E-01
DAV:   2    -0.557512557061E+02   -0.80670E-02   -0.80290E-02   240   0.131E+00    0.515E-01
DAV:   3    -0.557498152041E+02    0.14405E-02   -0.38648E-02   220   0.869E-01    0.348E-01
DAV:   4    -0.557487575425E+02    0.10577E-02   -0.12238E-02   240   0.406E-01    0.167E-01
DAV:   5    -0.557484385598E+02    0.31898E-03   -0.30301E-03   280   0.244E-01    0.137E-01
DAV:   6    -0.557486681205E+02   -0.22956E-03   -0.58072E-03   300   0.267E-01    0.238E-01
DAV:   7    -0.557484080679E+02    0.26005E-03   -0.60220E-03   280   0.263E-01    0.110E-01
DAV:   8    -0.557482044865E+02    0.20358E-03   -0.12516E-03   260   0.187E-01    0.366E-02
DAV:   9    -0.557481846598E+02    0.19827E-04   -0.16792E-04   180   0.614E-02    0.220E-02
DAV:  10    -0.557481787439E+02    0.59159E-05   -0.64962E-05   120   0.424E-02
  15 F= -.55748179E+02 E0= -.55666687E+02  d E =-.329558E-02
 curvature: -25.34 expect dE=-0.745E-02 dE for cont linesearch -0.386E-03
 ZBRENT: increasing intervall
 opt :  18.7467  next Energy=   -55.748375 (dE=-0.349E-02)
 bond charge predicted
       N       E                     dE             d eps       ncg     rms          rms(c)
DAV:   1    -0.557271139280E+02    0.21071E-01   -0.14366E+01   160   0.114E+01    0.477E-01
DAV:   2    -0.557587837458E+02   -0.31670E-01   -0.31923E-01   240   0.277E+00    0.901E-01
DAV:   3    -0.557556000799E+02    0.31837E-02   -0.13717E-01   240   0.168E+00    0.737E-01
DAV:   4    -0.557510018601E+02    0.45982E-02   -0.54002E-02   240   0.835E-01    0.344E-01
DAV:   5    -0.557496118463E+02    0.13900E-02   -0.12138E-02   260   0.482E-01    0.262E-01
DAV:   6    -0.557508438589E+02   -0.12320E-02   -0.24674E-02   300   0.562E-01    0.517E-01
DAV:   7    -0.557495148476E+02    0.13290E-02   -0.28385E-02   280   0.546E-01    0.232E-01
DAV:   8    -0.557486738950E+02    0.84095E-03   -0.59578E-03   260   0.375E-01    0.849E-02
DAV:   9    -0.557485919275E+02    0.81968E-04   -0.10458E-03   280   0.148E-01    0.596E-02
DAV:  10    -0.557485491076E+02    0.42820E-04   -0.40417E-04   200   0.944E-02    0.319E-02
DAV:  11    -0.557485358386E+02    0.13269E-04   -0.92942E-05   120   0.610E-02    0.176E-02
DAV:  12    -0.557485378170E+02   -0.19784E-05   -0.38399E-05   100   0.407E-02
  16 F= -.55748538E+02 E0= -.55668171E+02  d E =-.365465E-02
 curvature: -12.87 expect dE=-0.133E-01 dE for cont linesearch -0.112E-03
 ZBRENT: bracketing found
 ZBRENT: interpolating
 opt :  14.5326  next Energy=   -55.748856 (dE=-0.397E-02)
 bond charge predicted
       N       E                     dE             d eps       ncg     rms          rms(c)
DAV:   1    -0.557451426616E+02    0.33932E-02   -0.26688E+00   160   0.492E+00    0.198E-01
DAV:   2    -0.557506385972E+02   -0.54959E-02   -0.55568E-02   240   0.111E+00    0.370E-01
DAV:   3    -0.557498909567E+02    0.74764E-03   -0.21559E-02   240   0.695E-01    0.291E-01
DAV:   4    -0.557492239327E+02    0.66702E-03   -0.86908E-03   240   0.338E-01    0.146E-01
DAV:   5    -0.557489659797E+02    0.25795E-03   -0.20269E-03   260   0.201E-01    0.990E-02
DAV:   6    -0.557492487326E+02   -0.28275E-03   -0.43222E-03   280   0.260E-01    0.230E-01
DAV:   7    -0.557490197729E+02    0.22896E-03   -0.60169E-03   280   0.242E-01    0.119E-01
DAV:   8    -0.557488416441E+02    0.17813E-03   -0.14239E-03   240   0.160E-01    0.373E-02
DAV:   9    -0.557488139993E+02    0.27645E-04   -0.16367E-04   140   0.530E-02    0.206E-02
DAV:  10    -0.557488072688E+02    0.67305E-05   -0.54846E-05   120   0.425E-02
  17 F= -.55748807E+02 E0= -.55668070E+02  d E =-.392410E-02
 curvature: -36.36 expect dE=-0.216E-01 dE for cont linesearch -0.599E-05
 trial: gam= 1.19006 g(F)=  0.594E-03 g(S)=  0.000E+00 ort = 0.207E-04 (trialstep = 0.194E+01)
 search vector abs. value=  0.433E-02
 bond charge predicted
       N       E                     dE             d eps       ncg     rms          rms(c)
DAV:   1    -0.557486161773E+02    0.19782E-03   -0.94835E-01   160   0.293E+00    0.137E-01
DAV:   2    -0.557517447151E+02   -0.31285E-02   -0.31850E-02   240   0.739E-01    0.471E-01
DAV:   3    -0.557505849015E+02    0.11598E-02   -0.24324E-02   260   0.546E-01    0.214E-01
DAV:   4    -0.557500178395E+02    0.56706E-03   -0.42320E-03   240   0.243E-01    0.885E-02
DAV:   5    -0.557498825261E+02    0.13531E-03   -0.66403E-04   260   0.129E-01    0.626E-02
DAV:   6    -0.557499419743E+02   -0.59448E-04   -0.11706E-03   280   0.153E-01    0.109E-01
DAV:   7    -0.557499020990E+02    0.39875E-04   -0.18573E-03   280   0.154E-01    0.845E-02
DAV:   8    -0.557498277570E+02    0.74342E-04   -0.66619E-04   240   0.109E-01    0.232E-02
DAV:   9    -0.557498165824E+02    0.11175E-04   -0.79050E-05   120   0.407E-02    0.138E-02
DAV:  10    -0.557498149106E+02    0.16717E-05   -0.23295E-05    80   0.278E-02
  18 F= -.55749815E+02 E0= -.55669380E+02  d E =-.100764E-02
 trial-energy change:   -0.001008  1 .order   -0.001029   -0.001202   -0.000856
 step:   6.7477(harm=  6.7477)  dis= 0.01617  next Energy=   -55.750894 (dE=-0.209E-02)
 bond charge predicted
       N       E                     dE             d eps       ncg     rms          rms(c)
DAV:   1    -0.557431146973E+02    0.67019E-02   -0.57895E+00   160   0.725E+00    0.350E-01
DAV:   2    -0.557633782625E+02   -0.20264E-01   -0.20732E-01   240   0.192E+00    0.119E+00
DAV:   3    -0.557557713490E+02    0.76069E-02   -0.15634E-01   240   0.142E+00    0.538E-01
DAV:   4    -0.557521709377E+02    0.36004E-02   -0.27227E-02   240   0.623E-01    0.228E-01
DAV:   5    -0.557512811676E+02    0.88977E-03   -0.40777E-03   260   0.331E-01    0.149E-01
DAV:   6    -0.557514748342E+02   -0.19367E-03   -0.47378E-03   260   0.371E-01    0.221E-01
DAV:   7    -0.557514779944E+02   -0.31602E-05   -0.10160E-02   300   0.372E-01    0.237E-01
DAV:   8    -0.557509762161E+02    0.50178E-03   -0.50498E-03   280   0.278E-01    0.563E-02
DAV:   9    -0.557509054690E+02    0.70747E-04   -0.59333E-04   260   0.109E-01    0.386E-02
DAV:  10    -0.557508916867E+02    0.13782E-04   -0.15550E-04   140   0.621E-02    0.250E-02
DAV:  11    -0.557508850401E+02    0.66466E-05   -0.64979E-05   120   0.478E-02
  19 F= -.55750885E+02 E0= -.55671335E+02  d E =-.207777E-02
 curvature: -23.61 expect dE=-0.415E-02 dE for cont linesearch -0.179E-05
 trial: gam= 0.30117 g(F)=  0.176E-03 g(S)=  0.000E+00 ort = 0.181E-04 (trialstep = 0.290E+01)
 search vector abs. value=  0.579E-03
 bond charge predicted
       N       E                     dE             d eps       ncg     rms          rms(c)
DAV:   1    -0.557509959851E+02   -0.10430E-03   -0.28369E-01   160   0.160E+00    0.990E-02
DAV:   2    -0.557524346788E+02   -0.14387E-02   -0.14926E-02   240   0.482E-01    0.349E-01
DAV:   3    -0.557517068812E+02    0.72780E-03   -0.13816E-02   240   0.418E-01    0.152E-01
DAV:   4    -0.557514155778E+02    0.29130E-03   -0.23990E-03   240   0.187E-01    0.635E-02
DAV:   5    -0.557513859779E+02    0.29600E-04   -0.82556E-04   200   0.101E-01    0.709E-02
DAV:   6    -0.557513533563E+02    0.32622E-04   -0.51789E-04   140   0.838E-02    0.386E-02
DAV:   7    -0.557513553792E+02   -0.20230E-05   -0.24509E-04   220   0.768E-02    0.380E-02
DAV:   8    -0.557513419178E+02    0.13461E-04   -0.13783E-04   120   0.643E-02    0.176E-02
DAV:   9    -0.557513384663E+02    0.34515E-05   -0.42071E-05   100   0.344E-02
  20 F= -.55751338E+02 E0= -.55671960E+02  d E =-.453426E-03
 trial-energy change:   -0.000453  1 .order   -0.000456   -0.000527   -0.000385
 step:  10.8129(harm= 10.8129)  dis= 0.00989  next Energy=   -55.751865 (dE=-0.980E-03)
 bond charge predicted
       N       E                     dE             d eps       ncg     rms          rms(c)
DAV:   1    -0.557492932855E+02    0.20486E-02   -0.21068E+00   160   0.437E+00    0.260E-01
DAV:   2    -0.557591825687E+02   -0.98893E-02   -0.10315E-01   240   0.125E+00    0.906E-01
DAV:   3    -0.557543069535E+02    0.48756E-02   -0.91812E-02   240   0.110E+00    0.386E-01
DAV:   4    -0.557523468155E+02    0.19601E-02   -0.15483E-02   240   0.485E-01    0.162E-01
DAV:   5    -0.557521372624E+02    0.20955E-03   -0.52730E-03   240   0.262E-01    0.182E-01
DAV:   6    -0.557519595532E+02    0.17771E-03   -0.38889E-03   280   0.224E-01    0.111E-01
DAV:   7    -0.557519343551E+02    0.25198E-04   -0.17187E-03   240   0.199E-01    0.995E-02
DAV:   8    -0.557518319213E+02    0.10243E-03   -0.87164E-04   260   0.161E-01    0.443E-02
DAV:   9    -0.557518050427E+02    0.26879E-04   -0.25159E-04   120   0.797E-02    0.253E-02
DAV:  10    -0.557518022562E+02    0.27865E-05   -0.64443E-05   100   0.456E-02
  21 F= -.55751802E+02 E0= -.55672842E+02  d E =-.917216E-03
 curvature: -17.28 expect dE=-0.301E-02 dE for cont linesearch -0.383E-05
 trial: gam= 1.07140 g(F)=  0.175E-03 g(S)=  0.000E+00 ort =-0.113E-04 (trialstep = 0.319E+01)
 search vector abs. value=  0.815E-03
 bond charge predicted
       N       E                     dE             d eps       ncg     rms          rms(c)
DAV:   1    -0.557516872121E+02    0.11783E-03   -0.47998E-01   160   0.207E+00    0.111E-01
DAV:   2    -0.557536193547E+02   -0.19321E-02   -0.19311E-02   240   0.563E-01    0.390E-01
DAV:   3    -0.557527708568E+02    0.84850E-03   -0.16522E-02   220   0.458E-01    0.173E-01
DAV:   4    -0.557524121187E+02    0.35874E-03   -0.32482E-03   240   0.210E-01    0.770E-02
DAV:   5    -0.557523525328E+02    0.59586E-04   -0.94034E-04   220   0.118E-01    0.735E-02
DAV:   6    -0.557523187497E+02    0.33783E-04   -0.67053E-04   140   0.970E-02    0.498E-02
DAV:   7    -0.557523286334E+02   -0.98838E-05   -0.49721E-04   260   0.100E-01    0.529E-02
DAV:   8    -0.557522979841E+02    0.30649E-04   -0.27794E-04   120   0.836E-02    0.192E-02
DAV:   9    -0.557522931771E+02    0.48070E-05   -0.52050E-05   100   0.384E-02
  22 F= -.55752293E+02 E0= -.55673660E+02  d E =-.490921E-03
 ZBRENT: can't locate minimum, use default step
 trial-energy change:   -0.000491  1 .order   -0.000479   -0.000518   -0.000441
 step:  12.7513(harm= 21.6366)  dis= 0.01294  next Energy=   -55.753559 (dE=-0.176E-02)
 bond charge predicted
       N       E                     dE             d eps       ncg     rms          rms(c)
DAV:   1    -0.557476372987E+02    0.46607E-02   -0.43213E+00   160   0.622E+00    0.309E-01
DAV:   2    -0.557614878819E+02   -0.13851E-01   -0.14190E-01   220   0.157E+00    0.952E-01
DAV:   3    -0.557568182618E+02    0.46696E-02   -0.10569E-01   220   0.121E+00    0.490E-01
DAV:   4    -0.557542951243E+02    0.25231E-02   -0.24960E-02   240   0.575E-01    0.217E-01
DAV:   5    -0.557537308248E+02    0.56430E-03   -0.63230E-03   260   0.328E-01    0.186E-01
DAV:   6    -0.557536362905E+02    0.94534E-04   -0.59504E-03   300   0.286E-01    0.175E-01
DAV:   7    -0.557536257545E+02    0.10536E-04   -0.51611E-03   260   0.304E-01    0.160E-01
DAV:   8    -0.557533408236E+02    0.28493E-03   -0.25835E-03   280   0.238E-01    0.557E-02
DAV:   9    -0.557532927944E+02    0.48029E-04   -0.42289E-04   260   0.963E-02    0.290E-02
DAV:  10    -0.557532878826E+02    0.49118E-05   -0.85179E-05   120   0.526E-02
  23 F= -.55753288E+02 E0= -.55675387E+02  d E =-.148563E-02
 curvature: -41.72 expect dE=-0.111E-01 dE for cont linesearch -0.257E-03
 ZBRENT: increasing intervall
 opt :  31.8782  next Energy=   -55.753348 (dE=-0.155E-02)
 bond charge predicted
       N       E                     dE             d eps       ncg     rms          rms(c)
DAV:   1    -0.557278064537E+02    0.25486E-01   -0.17270E+01   160   0.125E+01    0.599E-01
DAV:   2    -0.557772598239E+02   -0.49453E-01   -0.52007E-01   240   0.318E+00    0.157E+00
DAV:   3    -0.557661498265E+02    0.11110E-01   -0.31606E-01   220   0.216E+00    0.982E-01
DAV:   4    -0.557575524707E+02    0.85974E-02   -0.96976E-02   240   0.109E+00    0.444E-01
DAV:   5    -0.557546568148E+02    0.28957E-02   -0.20239E-02   280   0.642E-01    0.283E-01
DAV:   6    -0.557551376570E+02   -0.48084E-03   -0.19648E-02   300   0.599E-01    0.392E-01
DAV:   7    -0.557550048516E+02    0.13281E-03   -0.28868E-02   280   0.661E-01    0.393E-01
DAV:   8    -0.557535979139E+02    0.14069E-02   -0.16512E-02   280   0.484E-01    0.130E-01
DAV:   9    -0.557533444146E+02    0.25350E-03   -0.23049E-03   280   0.206E-01    0.662E-02
DAV:  10    -0.557533023642E+02    0.42050E-04   -0.47994E-04   220   0.121E-01    0.389E-02
DAV:  11    -0.557532876544E+02    0.14710E-04   -0.13053E-04   120   0.805E-02    0.220E-02
DAV:  12    -0.557532978323E+02   -0.10178E-04   -0.70886E-05   200   0.505E-02    0.916E-03
DAV:  13    -0.557533079848E+02   -0.10153E-04   -0.84237E-06   120   0.252E-02    0.508E-03
DAV:  14    -0.557533191411E+02   -0.11156E-04   -0.46365E-06   120   0.135E-02    0.402E-03
DAV:  15    -0.557533299347E+02   -0.10794E-04   -0.32040E-06   120   0.124E-02    0.228E-03
DAV:  16    -0.557533385786E+02   -0.86440E-05   -0.23741E-06   120   0.831E-03
  24 F= -.55753339E+02 E0= -.55676353E+02  d E =-.153632E-02
 curvature:  -9.84 expect dE=-0.149E-01 dE for cont linesearch -0.531E-04
 trial: gam= 0.00000 g(F)=  0.151E-02 g(S)=  0.000E+00 ort =-0.663E-04 (trialstep = 0.480E+01)
 search vector abs. value=  0.151E-02
 bond charge predicted
       N       E                     dE             d eps       ncg     rms          rms(c)
DAV:   1    -0.557556551610E+02   -0.23252E-02   -0.20778E+00   160   0.435E+00    0.533E-01
DAV:   2    -0.558247910706E+02   -0.69136E-01   -0.69372E-01   240   0.285E+00    0.271E+00
DAV:   3    -0.557688140297E+02    0.55977E-01   -0.70485E-01   260   0.274E+00    0.675E-01
DAV:   4    -0.557577991549E+02    0.11015E-01   -0.54430E-02   200   0.824E-01    0.258E-01
DAV:   5    -0.557570372471E+02    0.76191E-03   -0.13965E-02   240   0.432E-01    0.263E-01
DAV:   6    -0.557564439544E+02    0.59329E-03   -0.73473E-03   280   0.316E-01    0.110E-01
DAV:   7    -0.557563373503E+02    0.10660E-03   -0.19848E-03   280   0.214E-01    0.843E-02
DAV:   8    -0.557563208900E+02    0.16460E-04   -0.12011E-03   280   0.171E-01    0.766E-02
DAV:   9    -0.557562621420E+02    0.58748E-04   -0.62939E-04   220   0.126E-01    0.365E-02
DAV:  10    -0.557562467710E+02    0.15371E-04   -0.11480E-04   120   0.610E-02    0.169E-02
DAV:  11    -0.557562449983E+02    0.17727E-05   -0.38723E-05   100   0.373E-02
  25 F= -.55756245E+02 E0= -.55679254E+02  d E =-.290642E-02
 trial-energy change:   -0.002906  1 .order   -0.002950   -0.007277    0.001378
 step:   4.0192(harm=  4.0388)  dis= 0.00636  next Energy=   -55.756358 (dE=-0.302E-02)
 bond charge predicted
       N       E                     dE             d eps       ncg     rms          rms(c)
DAV:   1    -0.557563506942E+02   -0.10392E-03   -0.55691E-02   160   0.713E-01    0.868E-02
DAV:   2    -0.557582460172E+02   -0.18953E-02   -0.18484E-02   240   0.470E-01    0.477E-01
DAV:   3    -0.557567789600E+02    0.14671E-02   -0.20102E-02   260   0.452E-01    0.121E-01
DAV:   4    -0.557564222246E+02    0.35674E-03   -0.16794E-03   200   0.137E-01    0.434E-02
DAV:   5    -0.557563959087E+02    0.26316E-04   -0.39039E-04   160   0.729E-02    0.439E-02
DAV:   6    -0.557563797285E+02    0.16180E-04   -0.19340E-04   120   0.567E-02    0.173E-02
DAV:   7    -0.557563781990E+02    0.15295E-05   -0.51762E-05   100   0.369E-02
  26 F= -.55756378E+02 E0= -.55679314E+02  d E =-.303962E-02
 curvature:  -2.02 expect dE=-0.552E-03 dE for cont linesearch -0.455E-07
 trial: gam= 0.18455 g(F)=  0.274E-03 g(S)=  0.000E+00 ort =-0.584E-05 (trialstep = 0.465E+01)
 search vector abs. value=  0.323E-03
 bond charge predicted
       N       E                     dE             d eps       ncg     rms          rms(c)
DAV:   1    -0.557570089892E+02   -0.62926E-03   -0.41020E-01   160   0.193E+00    0.187E-01
DAV:   2    -0.557627069362E+02   -0.56979E-02   -0.63917E-02   240   0.917E-01    0.761E-01
DAV:   3    -0.557587065469E+02    0.40004E-02   -0.67321E-02   260   0.866E-01    0.274E-01
DAV:   4    -0.557575070216E+02    0.11995E-02   -0.74009E-03   240   0.336E-01    0.102E-01
DAV:   5    -0.557574363964E+02    0.70625E-04   -0.25660E-03   260   0.170E-01    0.124E-01
DAV:   6    -0.557573208825E+02    0.11551E-03   -0.12456E-03   260   0.125E-01    0.380E-02
DAV:   7    -0.557573046213E+02    0.16261E-04   -0.24759E-04   220   0.854E-02    0.333E-02
DAV:   8    -0.557572888868E+02    0.15734E-04   -0.88856E-05   120   0.685E-02    0.123E-02
DAV:   9    -0.557572873351E+02    0.15517E-05   -0.21971E-05    80   0.344E-02
  27 F= -.55757287E+02 E0= -.55680034E+02  d E =-.909136E-03
 trial-energy change:   -0.000909  1 .order   -0.000923   -0.001267   -0.000578
 step:   8.5501(harm=  8.5501)  dis= 0.00572  next Energy=   -55.757544 (dE=-0.117E-02)
 bond charge predicted
       N       E                     dE             d eps       ncg     rms          rms(c)
DAV:   1    -0.557573114799E+02   -0.22593E-04   -0.28920E-01   160   0.162E+00    0.162E-01
DAV:   2    -0.557615749742E+02   -0.42635E-02   -0.47879E-02   240   0.779E-01    0.668E-01
DAV:   3    -0.557585997126E+02    0.29753E-02   -0.51371E-02   260   0.745E-01    0.244E-01
DAV:   4    -0.557576714048E+02    0.92831E-03   -0.57970E-03   240   0.295E-01    0.914E-02
DAV:   5    -0.557576124642E+02    0.58941E-04   -0.19961E-03   280   0.149E-01    0.108E-01
DAV:   6    -0.557575232866E+02    0.89178E-04   -0.92346E-04   200   0.110E-01    0.316E-02
DAV:   7    -0.557575128462E+02    0.10440E-04   -0.21215E-04   200   0.746E-02    0.312E-02
DAV:   8    -0.557575030691E+02    0.97770E-05   -0.13097E-04   120   0.604E-02    0.187E-02
DAV:   9    -0.557574998648E+02    0.32043E-05   -0.40156E-05    80   0.340E-02
  28 F= -.55757500E+02 E0= -.55680081E+02  d E =-.112167E-02
 curvature:  -5.07 expect dE=-0.705E-03 dE for cont linesearch -0.838E-07
 trial: gam= 0.52500 g(F)=  0.139E-03 g(S)=  0.000E+00 ort =-0.231E-05 (trialstep = 0.543E+01)
 search vector abs. value=  0.226E-03
 bond charge predicted
       N       E                     dE             d eps       ncg     rms          rms(c)
DAV:   1    -0.557576243317E+02   -0.12126E-03   -0.38700E-01   160   0.187E+00    0.105E-01
DAV:   2    -0.557595723104E+02   -0.19480E-02   -0.20634E-02   240   0.547E-01    0.421E-01
DAV:   3    -0.557585720528E+02    0.10003E-02   -0.18871E-02   240   0.438E-01    0.159E-01
DAV:   4    -0.557582068713E+02    0.36518E-03   -0.23670E-03   220   0.183E-01    0.680E-02
DAV:   5    -0.557581541322E+02    0.52739E-04   -0.64812E-04   220   0.102E-01    0.648E-02
DAV:   6    -0.557581379219E+02    0.16210E-04   -0.58280E-04   120   0.961E-02    0.527E-02
DAV:   7    -0.557581372741E+02    0.64777E-06   -0.50960E-04   260   0.982E-02    0.494E-02
DAV:   8    -0.557581142777E+02    0.22996E-04   -0.27568E-04   120   0.769E-02    0.227E-02
DAV:   9    -0.557581077134E+02    0.65643E-05   -0.56555E-05   100   0.416E-02
  29 F= -.55758108E+02 E0= -.55680678E+02  d E =-.607849E-03
 trial-energy change:   -0.000608  1 .order   -0.000613   -0.000748   -0.000478
 step:  15.0373(harm= 15.0373)  dis= 0.00629  next Energy=   -55.758537 (dE=-0.104E-02)
 bond charge predicted
       N       E                     dE             d eps       ncg     rms          rms(c)
DAV:   1    -0.557570501378E+02    0.10641E-02   -0.12136E+00   160   0.331E+00    0.186E-01
DAV:   2    -0.557630816123E+02   -0.60315E-02   -0.64109E-02   240   0.971E-01    0.735E-01
DAV:   3    -0.557600480458E+02    0.30336E-02   -0.58341E-02   220   0.775E-01    0.284E-01
DAV:   4    -0.557588931830E+02    0.11549E-02   -0.75690E-03   220   0.334E-01    0.124E-01
DAV:   5    -0.557587280502E+02    0.16513E-03   -0.21573E-03   260   0.181E-01    0.118E-01
DAV:   6    -0.557586679094E+02    0.60141E-04   -0.18765E-03   240   0.170E-01    0.895E-02
DAV:   7    -0.557586642348E+02    0.36746E-05   -0.14909E-03   300   0.165E-01    0.880E-02
DAV:   8    -0.557585931808E+02    0.71054E-04   -0.89561E-04   240   0.132E-01    0.393E-02
DAV:   9    -0.557585696567E+02    0.23524E-04   -0.15477E-04   140   0.666E-02    0.147E-02
DAV:  10    -0.557585679265E+02    0.17303E-05   -0.26440E-05   100   0.328E-02
  30 F= -.55758568E+02 E0= -.55681063E+02  d E =-.106806E-02
 curvature: -12.31 expect dE=-0.335E-02 dE for cont linesearch -0.180E-05
 trial: gam= 1.85155 g(F)=  0.272E-03 g(S)=  0.000E+00 ort = 0.574E-05 (trialstep = 0.155E+01)
 search vector abs. value=  0.107E-02
 bond charge predicted
       N       E                     dE             d eps       ncg     rms          rms(c)
DAV:   1    -0.557588041934E+02   -0.23454E-03   -0.14947E-01   160   0.115E+00    0.559E-02
DAV:   2    -0.557593326811E+02   -0.52849E-03   -0.50654E-03   240   0.306E-01    0.183E-01
DAV:   3    -0.557590892649E+02    0.24342E-03   -0.35058E-03   220   0.237E-01    0.695E-02
DAV:   4    -0.557590255452E+02    0.63720E-04   -0.54308E-04   200   0.860E-02    0.384E-02
DAV:   5    -0.557590181469E+02    0.73983E-05   -0.26311E-04   140   0.602E-02    0.428E-02
DAV:   6    -0.557590108562E+02    0.72907E-05   -0.23173E-04   120   0.571E-02    0.304E-02
DAV:   7    -0.557590074380E+02    0.34181E-05   -0.10885E-04   120   0.543E-02    0.215E-02
DAV:   8    -0.557590033649E+02    0.40731E-05   -0.46107E-05   100   0.504E-02
  31 F= -.55759003E+02 E0= -.55681531E+02  d E =-.435438E-03
 ZBRENT: can't locate minimum, use default step
 trial-energy change:   -0.000435  1 .order   -0.000438   -0.000439   -0.000437
 step:   6.2184(harm=256.3869)  dis= 0.00535  next Energy=   -55.794806 (dE=-0.362E-01)
 bond charge predicted
       N       E                     dE             d eps       ncg     rms          rms(c)
DAV:   1    -0.557584121653E+02    0.59527E-03   -0.13458E+00   160   0.346E+00    0.167E-01
DAV:   2    -0.557632062455E+02   -0.47941E-02   -0.46510E-02   260   0.935E-01    0.550E-01
DAV:   3    -0.557609148315E+02    0.22914E-02   -0.31637E-02   220   0.716E-01    0.199E-01
DAV:   4    -0.557603545277E+02    0.56030E-03   -0.45265E-03   220   0.247E-01    0.108E-01
DAV:   5    -0.557602781073E+02    0.76420E-04   -0.20510E-03   280   0.175E-01    0.115E-01
DAV:   6    -0.557602665951E+02    0.11512E-04   -0.24215E-03   260   0.170E-01    0.115E-01
DAV:   7    -0.557602274290E+02    0.39166E-04   -0.15694E-03   280   0.161E-01    0.807E-02
DAV:   8    -0.557601599038E+02    0.67525E-04   -0.57874E-04   220   0.123E-01    0.395E-02
DAV:   9    -0.557601403167E+02    0.19587E-04   -0.15561E-04   100   0.620E-02    0.187E-02
DAV:  10    -0.557601374658E+02    0.28509E-05   -0.37594E-05   100   0.352E-02
  32 F= -.55760137E+02 E0= -.55682455E+02  d E =-.156954E-02
 curvature: -17.55 expect dE=-0.403E-02 dE for cont linesearch -0.798E-03
 ZBRENT: increasing intervall
 opt :  15.5460  next Energy=   -55.761626 (dE=-0.306E-02)
 bond charge predicted
       N       E                     dE             d eps       ncg     rms          rms(c)
DAV:   1    -0.557545837041E+02    0.55566E-02   -0.53821E+00   160   0.692E+00    0.346E-01
DAV:   2    -0.557762008199E+02   -0.21617E-01   -0.21785E-01   240   0.206E+00    0.119E+00
DAV:   3    -0.557651340537E+02    0.11067E-01   -0.15362E-01   220   0.153E+00    0.394E-01
DAV:   4    -0.557626405081E+02    0.24935E-02   -0.17946E-02   220   0.473E-01    0.215E-01
DAV:   5    -0.557622613284E+02    0.37918E-03   -0.72054E-03   260   0.345E-01    0.210E-01
DAV:   6    -0.557623675012E+02   -0.10617E-03   -0.98892E-03   300   0.347E-01    0.259E-01
DAV:   7    -0.557621052070E+02    0.26229E-03   -0.75856E-03   260   0.332E-01    0.161E-01
DAV:   8    -0.557618430602E+02    0.26215E-03   -0.25197E-03   280   0.246E-01    0.856E-02
DAV:   9    -0.557617636329E+02    0.79427E-04   -0.77583E-04   220   0.132E-01    0.424E-02
DAV:  10    -0.557617429720E+02    0.20661E-04   -0.15787E-04   100   0.647E-02    0.244E-02
DAV:  11    -0.557617412936E+02    0.16784E-05   -0.44806E-05   120   0.443E-02
  33 F= -.55761741E+02 E0= -.55683828E+02  d E =-.317337E-02
 curvature: -32.74 expect dE=-0.204E-01 dE for cont linesearch -0.529E-03
 ZBRENT: increasing intervall
 opt :  34.2013  next Energy=   -55.762531 (dE=-0.396E-02)
 bond charge predicted
       N       E                     dE             d eps       ncg     rms          rms(c)
DAV:   1    -0.557302337713E+02    0.31509E-01   -0.21505E+01   160   0.139E+01    0.756E-01
DAV:   2    -0.558365421380E+02   -0.10631E+00   -0.10708E+00   260   0.488E+00    0.259E+00
DAV:   3    -0.557778695610E+02    0.58673E-01   -0.72334E-01   240   0.348E+00    0.799E-01
DAV:   4    -0.557666739295E+02    0.11196E-01   -0.76332E-02   240   0.939E-01    0.447E-01
DAV:   5    -0.557644187146E+02    0.22552E-02   -0.22583E-02   260   0.672E-01    0.319E-01
DAV:   6    -0.557645606184E+02   -0.14190E-03   -0.21845E-02   260   0.691E-01    0.408E-01
DAV:   7    -0.557642730291E+02    0.28759E-03   -0.33123E-02   280   0.644E-01    0.418E-01
DAV:   8    -0.557632832944E+02    0.98973E-03   -0.20498E-02   280   0.489E-01    0.218E-01
DAV:   9    -0.557628484020E+02    0.43489E-03   -0.51689E-03   260   0.294E-01    0.118E-01
DAV:  10    -0.557626931814E+02    0.15522E-03   -0.94037E-04   240   0.147E-01    0.504E-02
DAV:  11    -0.557626734761E+02    0.19705E-04   -0.13620E-04   160   0.804E-02    0.348E-02
DAV:  12    -0.557626790840E+02   -0.56080E-05   -0.91479E-05   120   0.630E-02
  34 F= -.55762679E+02 E0= -.55683754E+02  d E =-.411116E-02
 curvature: -48.90 expect dE=-0.153E+00 dE for cont linesearch -0.432E-04
 trial: gam=12.24389 g(F)=  0.314E-02 g(S)=  0.000E+00 ort =-0.307E-04 (trialstep = 0.531E-01)
 search vector abs. value=  0.162E+00
 bond charge predicted
       N       E                     dE             d eps       ncg     rms          rms(c)
DAV:   1    -0.557628045915E+02   -0.13112E-03   -0.26510E-02   160   0.483E-01    0.272E-02
DAV:   2    -0.557629549372E+02   -0.15035E-03   -0.11390E-03   260   0.154E-01    0.983E-02
DAV:   3    -0.557628830364E+02    0.71901E-04   -0.85837E-04   200   0.129E-01    0.332E-02
DAV:   4    -0.557628723817E+02    0.10655E-04   -0.11449E-04   100   0.376E-02    0.170E-02
DAV:   5    -0.557628756909E+02   -0.33092E-05   -0.54628E-05   100   0.334E-02
  35 F= -.55762876E+02 E0= -.55683973E+02  d E =-.196607E-03
 ZBRENT: can't locate minimum, use default step
 trial-energy change:   -0.000197  1 .order   -0.000153   -0.000147   -0.000160
 step:   0.2125(harm=  0.2125)  dis= 0.00237  next Energy=   -55.763370 (dE=-0.691E-03)
 bond charge predicted
       N       E                     dE             d eps       ncg     rms          rms(c)
DAV:   1    -0.557630659571E+02   -0.19358E-03   -0.23909E-01   160   0.145E+00    0.739E-02
DAV:   2    -0.557640848546E+02   -0.10189E-02   -0.88569E-03   260   0.393E-01    0.270E-01
DAV:   3    -0.557635291248E+02    0.55573E-03   -0.62168E-03   240   0.329E-01    0.815E-02
DAV:   4    -0.557634190438E+02    0.11008E-03   -0.83709E-04   220   0.963E-02    0.592E-02
DAV:   5    -0.557634048152E+02    0.14229E-04   -0.53851E-04   160   0.790E-02    0.557E-02
DAV:   6    -0.557634016722E+02    0.31431E-05   -0.40579E-04   120   0.823E-02    0.440E-02
DAV:   7    -0.557633978149E+02    0.38572E-05   -0.29502E-04   220   0.816E-02    0.260E-02
DAV:   8    -0.557633937886E+02    0.40264E-05   -0.67936E-05   120   0.521E-02
  36 F= -.55763394E+02 E0= -.55684391E+02  d E =-.714705E-03
 curvature:  -9.66 expect dE=-0.322E-01 dE for cont linesearch -0.552E-03
 ZBRENT: increasing intervall
 opt :   0.5313  next Energy=   -55.764377 (dE=-0.170E-02)
 bond charge predicted
       N       E                     dE             d eps       ncg     rms          rms(c)
DAV:   1    -0.557631633321E+02    0.23448E-03   -0.95515E-01   160   0.290E+00    0.140E-01
DAV:   2    -0.557666877656E+02   -0.35244E-02   -0.30955E-02   260   0.783E-01    0.474E-01
DAV:   3    -0.557649519834E+02    0.17358E-02   -0.19531E-02   220   0.611E-01    0.159E-01
DAV:   4    -0.557645400469E+02    0.41194E-03   -0.26475E-03   220   0.184E-01    0.828E-02
DAV:   5    -0.557644754324E+02    0.64615E-04   -0.10414E-03   260   0.143E-01    0.752E-02
DAV:   6    -0.557645220654E+02   -0.46633E-04   -0.13697E-03   260   0.146E-01    0.114E-01
DAV:   7    -0.557644892484E+02    0.32817E-04   -0.18234E-03   260   0.143E-01    0.830E-02
DAV:   8    -0.557644281487E+02    0.61100E-04   -0.75940E-04   220   0.104E-01    0.339E-02
DAV:   9    -0.557644149536E+02    0.13195E-04   -0.16448E-04   100   0.506E-02    0.191E-02
DAV:  10    -0.557644141815E+02    0.77205E-06   -0.39574E-05   100   0.321E-02
  37 F= -.55764414E+02 E0= -.55684903E+02  d E =-.173510E-02
 curvature: -17.21 expect dE=-0.623E-01 dE for cont linesearch -0.115E-02
 ZBRENT: increasing intervall
 opt :   1.1689  next Energy=   -55.766673 (dE=-0.399E-02)
 bond charge predicted
       N       E                     dE             d eps       ncg     rms          rms(c)
DAV:   1    -0.557615263092E+02    0.28886E-02   -0.38188E+00   160   0.581E+00    0.287E-01
DAV:   2    -0.557766189282E+02   -0.15093E-01   -0.13834E-01   260   0.168E+00    0.992E-01
DAV:   3    -0.557689933186E+02    0.76256E-02   -0.90355E-02   240   0.127E+00    0.320E-01
DAV:   4    -0.557671813819E+02    0.18119E-02   -0.10660E-02   220   0.364E-01    0.168E-01
DAV:   5    -0.557669075417E+02    0.27384E-03   -0.42029E-03   260   0.281E-01    0.154E-01
DAV:   6    -0.557671518109E+02   -0.24427E-03   -0.64582E-03   280   0.294E-01    0.249E-01
DAV:   7    -0.557668948094E+02    0.25700E-03   -0.75915E-03   280   0.297E-01    0.146E-01
DAV:   8    -0.557666681674E+02    0.22664E-03   -0.25277E-03   300   0.202E-01    0.677E-02
DAV:   9    -0.557666235513E+02    0.44616E-04   -0.65892E-04   240   0.100E-01    0.398E-02
DAV:  10    -0.557666097538E+02    0.13797E-04   -0.15537E-04   140   0.552E-02    0.227E-02
DAV:  11    -0.557666093283E+02    0.42553E-06   -0.34846E-05   140   0.355E-02
  38 F= -.55766609E+02 E0= -.55686467E+02  d E =-.393024E-02
 curvature: -33.79 expect dE=-0.142E+00 dE for cont linesearch -0.275E-02
 ZBRENT: increasing intervall
 opt :   2.4441  next Energy=   -55.771679 (dE=-0.900E-02)
 bond charge predicted
       N       E                     dE             d eps       ncg     rms          rms(c)
DAV:   1    -0.557493319861E+02    0.17278E-01   -0.15261E+01   160   0.116E+01    0.616E-01
DAV:   2    -0.558189657741E+02   -0.69634E-01   -0.69799E-01   260   0.389E+00    0.212E+00
DAV:   3    -0.557826035722E+02    0.36362E-01   -0.48066E-01   240   0.276E+00    0.677E-01
DAV:   4    -0.557746333924E+02    0.79702E-02   -0.49675E-02   240   0.806E-01    0.395E-01
DAV:   5    -0.557734318671E+02    0.12015E-02   -0.23108E-02   280   0.577E-01    0.377E-01
DAV:   6    -0.557739659065E+02   -0.53404E-03   -0.29030E-02   280   0.583E-01    0.463E-01
DAV:   7    -0.557725979037E+02    0.13680E-02   -0.24519E-02   300   0.614E-01    0.232E-01
DAV:   8    -0.557719514918E+02    0.64641E-03   -0.77286E-03   300   0.400E-01    0.143E-01
DAV:   9    -0.557718022426E+02    0.14925E-03   -0.26754E-03   260   0.211E-01    0.794E-02
DAV:  10    -0.557717394571E+02    0.62786E-04   -0.65083E-04   260   0.117E-01    0.481E-02
DAV:  11    -0.557717301867E+02    0.92704E-05   -0.14237E-04   120   0.700E-02    0.296E-02
DAV:  12    -0.557717362481E+02   -0.60614E-05   -0.78128E-05   160   0.541E-02
  39 F= -.55771736E+02 E0= -.55690029E+02  d E =-.905716E-02
 curvature: -62.30 expect dE=-0.342E+00 dE for cont linesearch -0.710E-02
 ZBRENT: increasing intervall
 opt :   4.9944  next Energy=   -55.784403 (dE=-0.217E-01)
 bond charge predicted
       N       E                     dE             d eps       ncg     rms          rms(c)
DAV:   1    -0.556714994175E+02    0.10023E+00   -0.60960E+01   160   0.234E+01    0.137E+00
DAV:   2    -0.560111809464E+02   -0.33968E+00   -0.35008E+00   260   0.935E+00    0.436E+00
DAV:   3    -0.558349447760E+02    0.17624E+00   -0.20868E+00   260   0.622E+00    0.150E+00
DAV:   4    -0.558045549966E+02    0.30390E-01   -0.30612E-01   260   0.205E+00    0.122E+00
DAV:   5    -0.557948343927E+02    0.97206E-02   -0.16690E-01   260   0.132E+00    0.835E-01
DAV:   6    -0.557915254378E+02    0.33090E-02   -0.84161E-02   280   0.112E+00    0.671E-01
DAV:   7    -0.557872149137E+02    0.43105E-02   -0.59373E-02   260   0.113E+00    0.416E-01
DAV:   8    -0.557855077334E+02    0.17072E-02   -0.26031E-02   280   0.844E-01    0.289E-01
DAV:   9    -0.557848833970E+02    0.62434E-03   -0.10253E-02   280   0.459E-01    0.152E-01
DAV:  10    -0.557846283236E+02    0.25507E-03   -0.28962E-03   280   0.258E-01    0.972E-02
DAV:  11    -0.557846021151E+02    0.26208E-04   -0.10029E-03   280   0.167E-01    0.732E-02
DAV:  12    -0.557845733171E+02    0.28798E-04   -0.52976E-04   260   0.127E-01    0.276E-02
DAV:  13    -0.557845844559E+02   -0.11139E-04   -0.65287E-05   120   0.612E-02    0.165E-02
DAV:  14    -0.557846325934E+02   -0.48138E-04   -0.39004E-05   160   0.321E-02    0.102E-02
DAV:  15    -0.557846658566E+02   -0.33263E-04   -0.16754E-05   140   0.298E-02    0.615E-03
DAV:  16    -0.557847029139E+02   -0.37057E-04   -0.10356E-05   140   0.191E-02    0.418E-03
DAV:  17    -0.557847272390E+02   -0.24325E-04   -0.56516E-06   140   0.142E-02    0.207E-03
DAV:  18    -0.557847631304E+02   -0.35891E-04   -0.63897E-06   140   0.100E-02    0.197E-03
DAV:  19    -0.557848008593E+02   -0.37729E-04   -0.11023E-05   160   0.995E-03    0.129E-03
DAV:  20    -0.557848295462E+02   -0.28687E-04   -0.52721E-06   120   0.629E-03    0.871E-04
DAV:  21    -0.557848469780E+02   -0.17432E-04   -0.52447E-06   120   0.614E-03    0.814E-04
DAV:  22    -0.557848537784E+02   -0.68003E-05   -0.25008E-06   140   0.619E-03
  40 F= -.55784854E+02 E0= -.55700043E+02  d E =-.221747E-01
 curvature: ****** expect dE=-0.972E+00 dE for cont linesearch -0.216E-01
 ZBRENT: increasing intervall
 opt :  10.0950  next Energy=   -55.820199 (dE=-0.575E-01)
 bond charge predicted
       N       E                     dE             d eps       ncg     rms          rms(c)
DAV:   1    -0.552047695078E+02    0.58008E+00   -0.24490E+02   160   0.483E+01    0.285E+00
DAV:   2    -0.566798269316E+02   -0.14751E+01   -0.15378E+01   240   0.197E+01    0.801E+00
DAV:   3    -0.560616246488E+02    0.61820E+00   -0.81639E+00   280   0.123E+01    0.376E+00
DAV:   4    -0.559278475110E+02    0.13378E+00   -0.21411E+00   260   0.498E+00    0.276E+00
DAV:   5    -0.558594362280E+02    0.68411E-01   -0.82075E-01   260   0.309E+00    0.164E+00
DAV:   6    -0.558378003226E+02    0.21636E-01   -0.23777E-01   280   0.202E+00    0.117E+00
DAV:   7    -0.558221396824E+02    0.15661E-01   -0.18653E-01   260   0.206E+00    0.907E-01
DAV:   8    -0.558166384392E+02    0.55012E-02   -0.11018E-01   280   0.179E+00    0.618E-01
DAV:   9    -0.558122315671E+02    0.44069E-02   -0.37872E-02   280   0.104E+00    0.249E-01
DAV:  10    -0.558114932569E+02    0.73831E-03   -0.90476E-03   280   0.576E-01    0.203E-01
DAV:  11    -0.558112472932E+02    0.24596E-03   -0.53734E-03   260   0.340E-01    0.171E-01
DAV:  12    -0.558109229230E+02    0.32437E-03   -0.27756E-03   280   0.257E-01    0.594E-02
DAV:  13    -0.558109481633E+02   -0.25240E-04   -0.52535E-04   240   0.127E-01    0.475E-02
DAV:  14    -0.558110097089E+02   -0.61546E-04   -0.18518E-04   240   0.886E-02    0.230E-02
DAV:  15    -0.558110742898E+02   -0.64581E-04   -0.42070E-05   100   0.483E-02    0.140E-02
DAV:  16    -0.558111669656E+02   -0.92676E-04   -0.35353E-05   140   0.322E-02    0.831E-03
DAV:  17    -0.558112163132E+02   -0.49348E-04   -0.13454E-05   140   0.243E-02    0.498E-03
DAV:  18    -0.558112878368E+02   -0.71524E-04   -0.12732E-05   100   0.157E-02    0.325E-03
DAV:  19    -0.558113463718E+02   -0.58535E-04   -0.12655E-05   140   0.137E-02    0.238E-03
DAV:  20    -0.558114359262E+02   -0.89554E-04   -0.19644E-05   120   0.116E-02    0.177E-03
DAV:  21    -0.558114831173E+02   -0.47191E-04   -0.10232E-05   120   0.942E-03    0.163E-03
DAV:  22    -0.558115062932E+02   -0.23176E-04   -0.86128E-06   160   0.879E-03    0.862E-04
DAV:  23    -0.558115197260E+02   -0.13433E-04   -0.25759E-06   100   0.485E-03    0.502E-04
DAV:  24    -0.558115256148E+02   -0.58888E-05   -0.11430E-06   120   0.388E-03
  41 F= -.55811526E+02 E0= -.55722225E+02  d E =-.488465E-01
 curvature: ****** expect dE=-0.304E+01 dE for cont linesearch -0.150E-01
 ZBRENT: increasing intervall
 opt :  20.2963  next Energy=   -55.828815 (dE=-0.661E-01)
 bond charge predicted
       N       E                     dE             d eps       ncg     rms          rms(c)
DAV:   1    -0.527882547370E+02    0.30233E+01   -0.10147E+03   160   0.106E+02    0.531E+00
DAV:   2    -0.584037269437E+02   -0.56155E+01   -0.57843E+01   240   0.364E+01    0.136E+01
DAV:   3    -0.566629355108E+02    0.17408E+01   -0.26837E+01   260   0.210E+01    0.631E+00
DAV:   4    -0.560595517870E+02    0.60338E+00   -0.45177E+00   280   0.997E+00    0.417E+00
DAV:   5    -0.559310314373E+02    0.12852E+00   -0.23236E+00   280   0.559E+00    0.341E+00
DAV:   6    -0.558499323486E+02    0.81099E-01   -0.95178E-01   280   0.371E+00    0.226E+00
DAV:   7    -0.557861151492E+02    0.63817E-01   -0.60454E-01   260   0.388E+00    0.176E+00
DAV:   8    -0.557762477357E+02    0.98674E-02   -0.43964E-01   260   0.335E+00    0.151E+00
DAV:   9    -0.557502805596E+02    0.25967E-01   -0.17945E-01   260   0.218E+00    0.581E-01
DAV:  10    -0.557472066859E+02    0.30739E-02   -0.50687E-02   240   0.121E+00    0.461E-01
DAV:  11    -0.557455343220E+02    0.16724E-02   -0.30108E-02   240   0.822E-01    0.381E-01
DAV:  12    -0.557438070401E+02    0.17273E-02   -0.10372E-02   260   0.531E-01    0.175E-01
DAV:  13    -0.557434921747E+02    0.31487E-03   -0.44399E-03   240   0.336E-01    0.119E-01
DAV:  14    -0.557434375693E+02    0.54605E-04   -0.15405E-03   260   0.213E-01    0.591E-02
DAV:  15    -0.557435519908E+02   -0.11442E-03   -0.50397E-04   220   0.128E-01    0.436E-02
DAV:  16    -0.557437400761E+02   -0.18809E-03   -0.12168E-04   180   0.690E-02    0.142E-02
DAV:  17    -0.557438833663E+02   -0.14329E-03   -0.30703E-05   140   0.359E-02    0.115E-02
DAV:  18    -0.557440402093E+02   -0.15684E-03   -0.25911E-05   120   0.304E-02    0.691E-03
DAV:  19    -0.557441865598E+02   -0.14635E-03   -0.19273E-05   140   0.193E-02    0.446E-03
DAV:  20    -0.557443674173E+02   -0.18086E-03   -0.31166E-05   160   0.166E-02    0.317E-03
DAV:  21    -0.557445227881E+02   -0.15537E-03   -0.27444E-05   160   0.127E-02    0.341E-03
DAV:  22    -0.557446073842E+02   -0.84596E-04   -0.15234E-05   120   0.116E-02    0.305E-03
DAV:  23    -0.557446596500E+02   -0.52266E-04   -0.10726E-05   140   0.908E-03    0.144E-03
DAV:  24    -0.557446809574E+02   -0.21307E-04   -0.24104E-06   140   0.558E-03    0.816E-04
DAV:  25    -0.557446931407E+02   -0.12183E-04   -0.14796E-06   100   0.446E-03    0.508E-04
DAV:  26    -0.557446979247E+02   -0.47840E-05   -0.59234E-07   100   0.379E-03
  42 F= -.55744698E+02 E0= -.55651553E+02  d E =0.179812E-01
 curvature: ****** expect dE=-0.854E+01 dE for cont linesearch -0.534E+00
 ZBRENT: bracketing found
 ZBRENT: interpolating
 opt :  11.6506  next Energy=   -55.814369 (dE=-0.517E-01)
 bond charge predicted
       N       E                     dE             d eps       ncg     rms          rms(c)
DAV:   1    -0.537217140324E+02    0.20230E+01   -0.71718E+02   160   0.868E+01    0.425E+00
DAV:   2    -0.566928292305E+02   -0.29711E+01   -0.32165E+01   240   0.277E+01    0.695E+00
DAV:   3    -0.562378502764E+02    0.45498E+00   -0.69747E+00   280   0.144E+01    0.490E+00
DAV:   4    -0.559843895575E+02    0.25346E+00   -0.27724E+00   260   0.659E+00    0.302E+00
DAV:   5    -0.559210884831E+02    0.63301E-01   -0.11605E+00   280   0.367E+00    0.265E+00
DAV:   6    -0.558992162306E+02    0.21872E-01   -0.84094E-01   260   0.318E+00    0.235E+00
DAV:   7    -0.558562114441E+02    0.43005E-01   -0.71203E-01   240   0.342E+00    0.160E+00
DAV:   8    -0.558222956231E+02    0.33916E-01   -0.25571E-01   260   0.307E+00    0.684E-01
DAV:   9    -0.558184036139E+02    0.38920E-02   -0.79364E-02   240   0.142E+00    0.459E-01
DAV:  10    -0.558157955822E+02    0.26080E-02   -0.20009E-02   260   0.804E-01    0.240E-01
DAV:  11    -0.558152833618E+02    0.51222E-03   -0.81355E-03   280   0.484E-01    0.209E-01
DAV:  12    -0.558149168786E+02    0.36648E-03   -0.57687E-03   240   0.369E-01    0.131E-01
DAV:  13    -0.558147856979E+02    0.13118E-03   -0.16660E-03   260   0.232E-01    0.459E-02
DAV:  14    -0.558148743662E+02   -0.88668E-04   -0.36547E-04   220   0.117E-01    0.375E-02
DAV:  15    -0.558149782309E+02   -0.10386E-03   -0.11601E-04   120   0.741E-02    0.166E-02
DAV:  16    -0.558151037279E+02   -0.12550E-03   -0.43497E-05   140   0.448E-02    0.106E-02
DAV:  17    -0.558152406416E+02   -0.13691E-03   -0.31789E-05   120   0.307E-02    0.496E-03
DAV:  18    -0.558153163155E+02   -0.75674E-04   -0.10739E-05   140   0.186E-02    0.384E-03
DAV:  19    -0.558154398030E+02   -0.12349E-03   -0.23163E-05   120   0.170E-02    0.273E-03
DAV:  20    -0.558155662713E+02   -0.12647E-03   -0.34990E-05   160   0.129E-02    0.185E-03
DAV:  21    -0.558156344396E+02   -0.68168E-04   -0.18721E-05   140   0.899E-03    0.154E-03
DAV:  22    -0.558156559582E+02   -0.21519E-04   -0.43785E-06   140   0.736E-03    0.125E-03
DAV:  23    -0.558156675385E+02   -0.11580E-04   -0.29144E-06   100   0.626E-03    0.657E-04
DAV:  24    -0.558156727918E+02   -0.52533E-05   -0.12811E-06   140   0.464E-03
  43 F= -.55815673E+02 E0= -.55725469E+02  d E =-.529937E-01
 curvature:  -1.12 expect dE=-0.218E-01 dE for cont linesearch -0.170E-04
 trial: gam= 0.00000 g(F)=  0.195E-01 g(S)=  0.000E+00 ort = 0.157E-02 (trialstep = 0.237E+01)
 search vector abs. value=  0.195E-01
 bond charge predicted
       N       E                     dE             d eps       ncg     rms          rms(c)
DAV:   1    -0.558451990604E+02   -0.29532E-01   -0.63777E+00   160   0.768E+00    0.533E-01
DAV:   2    -0.558691664944E+02   -0.23967E-01   -0.24090E-01   240   0.255E+00    0.108E+00
DAV:   3    -0.558578868413E+02    0.11280E-01   -0.15993E-01   240   0.219E+00    0.785E-01
DAV:   4    -0.558548796527E+02    0.30072E-02   -0.76173E-02   240   0.882E-01    0.520E-01
DAV:   5    -0.558533642733E+02    0.15154E-02   -0.31600E-02   260   0.602E-01    0.384E-01
DAV:   6    -0.558521171965E+02    0.12471E-02   -0.13620E-02   280   0.449E-01    0.177E-01
DAV:   7    -0.558520028518E+02    0.11434E-03   -0.50026E-03   260   0.360E-01    0.155E-01
DAV:   8    -0.558517293047E+02    0.27355E-03   -0.27925E-03   280   0.290E-01    0.740E-02
DAV:   9    -0.558516529389E+02    0.76366E-04   -0.65278E-04   260   0.138E-01    0.333E-02
DAV:  10    -0.558516405260E+02    0.12413E-04   -0.15504E-04   120   0.745E-02    0.213E-02
DAV:  11    -0.558516365897E+02    0.39363E-05   -0.61683E-05   120   0.525E-02
  44 F= -.55851637E+02 E0= -.55760304E+02  d E =-.359638E-01
 trial-energy change:   -0.035964  1 .order   -0.036104   -0.046256   -0.025952
 step:   5.7430(harm=  5.4053)  dis= 0.02803  next Energy=   -55.869668 (dE=-0.540E-01)
 bond charge predicted
       N       E                     dE             d eps       ncg     rms          rms(c)
DAV:   1    -0.558538014556E+02   -0.21609E-02   -0.12861E+01   160   0.109E+01    0.764E-01
DAV:   2    -0.559033230477E+02   -0.49522E-01   -0.50106E-01   240   0.375E+00    0.156E+00
DAV:   3    -0.558832900410E+02    0.20033E-01   -0.36947E-01   240   0.319E+00    0.128E+00
DAV:   4    -0.558748881490E+02    0.84019E-02   -0.17067E-01   260   0.134E+00    0.753E-01
DAV:   5    -0.558711403273E+02    0.37478E-02   -0.66748E-02   260   0.879E-01    0.543E-01
DAV:   6    -0.558685791133E+02    0.25612E-02   -0.27649E-02   260   0.631E-01    0.250E-01
DAV:   7    -0.558683610462E+02    0.21807E-03   -0.10815E-02   260   0.521E-01    0.234E-01
DAV:   8    -0.558678270591E+02    0.53399E-03   -0.66884E-03   280   0.431E-01    0.120E-01
DAV:   9    -0.558676248723E+02    0.20219E-03   -0.16332E-03   300   0.220E-01    0.487E-02
DAV:  10    -0.558676066394E+02    0.18233E-04   -0.38864E-04   220   0.110E-01    0.332E-02
DAV:  11    -0.558676007178E+02    0.59216E-05   -0.13922E-04   140   0.718E-02    0.213E-02
DAV:  12    -0.558676070444E+02   -0.63266E-05   -0.84246E-05   120   0.493E-02
  45 F= -.55867607E+02 E0= -.55774724E+02  d E =-.519343E-01
 curvature:  -2.67 expect dE=-0.169E-01 dE for cont linesearch -0.223E-03
 ZBRENT: interpolating
 opt :   5.3906  next Energy=   -55.867832 (dE=-0.522E-01)
 bond charge predicted
       N       E                     dE             d eps       ncg     rms          rms(c)
DAV:   1    -0.558677322078E+02   -0.13149E-03   -0.14130E-01   160   0.114E+00    0.793E-02
DAV:   2    -0.558682665579E+02   -0.53435E-03   -0.53171E-03   240   0.368E-01    0.164E-01
DAV:   3    -0.558680193351E+02    0.24722E-03   -0.37380E-03   240   0.327E-01    0.113E-01
DAV:   4    -0.558679659356E+02    0.53400E-04   -0.17648E-03   200   0.133E-01    0.836E-02
DAV:   5    -0.558679329469E+02    0.32989E-04   -0.71071E-04   160   0.914E-02    0.582E-02
DAV:   6    -0.558679084771E+02    0.24470E-04   -0.29089E-04   100   0.691E-02    0.257E-02
DAV:   7    -0.558679117309E+02   -0.32538E-05   -0.91741E-05   120   0.555E-02
  46 F= -.55867912E+02 E0= -.55775112E+02  d E =-.522389E-01
 curvature:  -2.69 expect dE=-0.147E-01 dE for cont linesearch -0.110E-06
 trial: gam= 0.28184 g(F)=  0.547E-02 g(S)=  0.000E+00 ort =-0.282E-04 (trialstep = 0.298E+01)
 search vector abs. value=  0.700E-02
 bond charge predicted
       N       E                     dE             d eps       ncg     rms          rms(c)
DAV:   1    -0.558780753402E+02   -0.10167E-01   -0.36054E+00   160   0.572E+00    0.462E-01
DAV:   2    -0.559056919754E+02   -0.27617E-01   -0.28488E-01   260   0.245E+00    0.147E+00
DAV:   3    -0.558905051043E+02    0.15187E-01   -0.28910E-01   240   0.211E+00    0.908E-01
DAV:   4    -0.558838642079E+02    0.66409E-02   -0.79154E-02   240   0.836E-01    0.362E-01
DAV:   5    -0.558821702904E+02    0.16939E-02   -0.14198E-02   220   0.466E-01    0.271E-01
DAV:   6    -0.558815861120E+02    0.58418E-03   -0.57346E-03   280   0.320E-01    0.141E-01
DAV:   7    -0.558814163858E+02    0.16973E-03   -0.26608E-03   260   0.259E-01    0.987E-02
DAV:   8    -0.558813297036E+02    0.86682E-04   -0.13711E-03   300   0.204E-01    0.582E-02
DAV:   9    -0.558812823315E+02    0.47372E-04   -0.45057E-04   240   0.124E-01    0.245E-02
DAV:  10    -0.558812777139E+02    0.46175E-05   -0.96144E-05   120   0.509E-02
  47 F= -.55881278E+02 E0= -.55788144E+02  d E =-.133660E-01
 trial-energy change:   -0.013366  1 .order   -0.013338   -0.016246   -0.010429
 step:   8.3128(harm=  8.3128)  dis= 0.02079  next Energy=   -55.890599 (dE=-0.227E-01)
 bond charge predicted
       N       E                     dE             d eps       ncg     rms          rms(c)
DAV:   1    -0.558785949140E+02    0.26874E-02   -0.11578E+01   160   0.103E+01    0.832E-01
DAV:   2    -0.559656801539E+02   -0.87085E-01   -0.95880E-01   260   0.452E+00    0.259E+00
DAV:   3    -0.559218226786E+02    0.43857E-01   -0.10025E+00   220   0.377E+00    0.169E+00
DAV:   4    -0.558987881382E+02    0.23035E-01   -0.27269E-01   240   0.161E+00    0.636E-01
DAV:   5    -0.558931101427E+02    0.56780E-02   -0.41503E-02   240   0.840E-01    0.479E-01
DAV:   6    -0.558913865254E+02    0.17236E-02   -0.18313E-02   280   0.577E-01    0.264E-01
DAV:   7    -0.558907767466E+02    0.60978E-03   -0.86820E-03   240   0.464E-01    0.179E-01
DAV:   8    -0.558904995912E+02    0.27716E-03   -0.45226E-03   280   0.375E-01    0.115E-01
DAV:   9    -0.558903252002E+02    0.17439E-03   -0.16459E-03   280   0.241E-01    0.423E-02
DAV:  10    -0.558903031699E+02    0.22030E-04   -0.24765E-04   200   0.817E-02    0.248E-02
DAV:  11    -0.558903034086E+02   -0.23873E-06   -0.92862E-05   120   0.614E-02
  48 F= -.55890303E+02 E0= -.55795992E+02  d E =-.223917E-01
 curvature:  -5.33 expect dE=-0.188E-01 dE for cont linesearch -0.702E-05
 trial: gam= 0.64635 g(F)=  0.353E-02 g(S)=  0.000E+00 ort =-0.960E-04 (trialstep = 0.404E+01)
 search vector abs. value=  0.633E-02
 bond charge predicted
       N       E                     dE             d eps       ncg     rms          rms(c)
DAV:   1    -0.558952211443E+02   -0.49180E-02   -0.59388E+00   160   0.736E+00    0.391E-01
DAV:   2    -0.559231215195E+02   -0.27900E-01   -0.25655E-01   240   0.219E+00    0.157E+00
DAV:   3    -0.559119335356E+02    0.11188E-01   -0.24942E-01   240   0.167E+00    0.763E-01
DAV:   4    -0.559055843584E+02    0.63492E-02   -0.53215E-02   220   0.809E-01    0.317E-01
DAV:   5    -0.559040680336E+02    0.15163E-02   -0.98689E-03   220   0.404E-01    0.215E-01
DAV:   6    -0.559039068526E+02    0.16118E-03   -0.63447E-03   280   0.351E-01    0.202E-01
DAV:   7    -0.559036873418E+02    0.21951E-03   -0.50849E-03   280   0.351E-01    0.126E-01
DAV:   8    -0.559034280820E+02    0.25926E-03   -0.14291E-03   300   0.251E-01    0.308E-02
DAV:   9    -0.559034204179E+02    0.76641E-05   -0.20350E-04   200   0.862E-02    0.317E-02
DAV:  10    -0.559034160923E+02    0.43256E-05   -0.99848E-05   140   0.509E-02
  49 F= -.55903416E+02 E0= -.55807963E+02  d E =-.131127E-01
 ZBRENT: can't locate minimum, use default step
 trial-energy change:   -0.013113  1 .order   -0.013078   -0.014016   -0.012140
 step:  16.1741(harm= 30.1999)  dis= 0.03576  next Energy=   -55.942645 (dE=-0.523E-01)
 bond charge predicted
       N       E                     dE             d eps       ncg     rms          rms(c)
DAV:   1    -0.558408614810E+02    0.62559E-01   -0.53410E+01   160   0.222E+01    0.130E+00
DAV:   2    -0.561326189941E+02   -0.29176E+00   -0.28332E+00   240   0.788E+00    0.439E+00
DAV:   3    -0.560036508051E+02    0.12897E+00   -0.22933E+00   240   0.566E+00    0.221E+00
DAV:   4    -0.559520759788E+02    0.51575E-01   -0.50842E-01   240   0.260E+00    0.105E+00
DAV:   5    -0.559387327125E+02    0.13343E-01   -0.11452E-01   220   0.127E+00    0.667E-01
DAV:   6    -0.559367031247E+02    0.20296E-02   -0.64509E-02   280   0.105E+00    0.617E-01
DAV:   7    -0.559337160941E+02    0.29870E-02   -0.39870E-02   280   0.102E+00    0.366E-01
DAV:   8    -0.559317583743E+02    0.19577E-02   -0.12841E-02   280   0.770E-01    0.134E-01
DAV:   9    -0.559316068630E+02    0.15151E-03   -0.25632E-03   280   0.339E-01    0.109E-01
DAV:  10    -0.559314869229E+02    0.11994E-03   -0.10034E-03   280   0.189E-01    0.538E-02
DAV:  11    -0.559314690608E+02    0.17862E-04   -0.35803E-04   240   0.111E-01    0.435E-02
DAV:  12    -0.559314708058E+02   -0.17450E-05   -0.28193E-04   200   0.865E-02    0.328E-02
DAV:  13    -0.559314725153E+02   -0.17095E-05   -0.90595E-05   120   0.506E-02
  50 F= -.55931473E+02 E0= -.55832530E+02  d E =-.411691E-01
 curvature: -19.64 expect dE=-0.751E-01 dE for cont linesearch -0.774E-02
 ZBRENT: increasing intervall
 opt :  40.4353  next Energy=   -55.935261 (dE=-0.450E-01)
 bond charge predicted
       N       E                     dE             d eps       ncg     rms          rms(c)
DAV:   1    -0.554588012252E+02    0.47267E+00   -0.21384E+02   160   0.453E+01    0.279E+00
DAV:   2    -0.567255552186E+02   -0.12668E+01   -0.12833E+01   240   0.174E+01    0.724E+00
DAV:   3    -0.561385568249E+02    0.58700E+00   -0.53388E+00   220   0.121E+01    0.349E+00
DAV:   4    -0.560056572767E+02    0.13290E+00   -0.15370E+00   280   0.492E+00    0.222E+00
DAV:   5    -0.559660510795E+02    0.39606E-01   -0.50554E-01   260   0.248E+00    0.137E+00
DAV:   6    -0.559570372376E+02    0.90138E-02   -0.28021E-01   280   0.208E+00    0.128E+00
DAV:   7    -0.559408872910E+02    0.16150E-01   -0.19588E-01   280   0.200E+00    0.681E-01
DAV:   8    -0.559356880390E+02    0.51993E-02   -0.48382E-02   260   0.144E+00    0.350E-01
DAV:   9    -0.559342626463E+02    0.14254E-02   -0.10897E-02   260   0.773E-01    0.213E-01
DAV:  10    -0.559337991855E+02    0.46346E-03   -0.29623E-03   280   0.391E-01    0.137E-01
DAV:  11    -0.559335732131E+02    0.22597E-03   -0.15950E-03   220   0.263E-01    0.847E-02
DAV:  12    -0.559335255599E+02    0.47653E-04   -0.74687E-04   260   0.190E-01    0.488E-02
DAV:  13    -0.559335652350E+02   -0.39675E-04   -0.22561E-04   200   0.102E-01    0.307E-02
DAV:  14    -0.559336270029E+02   -0.61768E-04   -0.10460E-04   140   0.678E-02    0.238E-02
DAV:  15    -0.559336738019E+02   -0.46799E-04   -0.66301E-05   100   0.494E-02    0.177E-02
DAV:  16    -0.559337284065E+02   -0.54605E-04   -0.54201E-05   140   0.309E-02    0.117E-02
DAV:  17    -0.559337771767E+02   -0.48770E-04   -0.19301E-05   100   0.249E-02    0.364E-03
DAV:  18    -0.559338283294E+02   -0.51153E-04   -0.14431E-05   140   0.138E-02    0.285E-03
DAV:  19    -0.559338764076E+02   -0.48078E-04   -0.76363E-06   100   0.107E-02    0.237E-03
DAV:  20    -0.559339204964E+02   -0.44089E-04   -0.15141E-05   140   0.115E-02    0.175E-03
DAV:  21    -0.559339516828E+02   -0.31186E-04   -0.14084E-05   120   0.919E-03    0.172E-03
DAV:  22    -0.559339585822E+02   -0.68994E-05   -0.25597E-06   120   0.634E-03
  51 F= -.55933959E+02 E0= -.55831402E+02  d E =-.436552E-01
 curvature:  -9.61 expect dE=-0.194E+00 dE for cont linesearch -0.330E-02
 ZBRENT: bracketing found
 ZBRENT: interpolating
 opt :  28.7192  next Energy=   -55.942598 (dE=-0.523E-01)
 bond charge predicted
       N       E                     dE             d eps       ncg     rms          rms(c)
DAV:   1    -0.558588395381E+02    0.75112E-01   -0.49774E+01   160   0.215E+01    0.119E+00
DAV:   2    -0.561186649774E+02   -0.25983E+00   -0.26523E+00   240   0.677E+00    0.427E+00
DAV:   3    -0.559977905373E+02    0.12087E+00   -0.21009E+00   220   0.549E+00    0.196E+00
DAV:   4    -0.559639162111E+02    0.33874E-01   -0.51583E-01   240   0.216E+00    0.115E+00
DAV:   5    -0.559496258570E+02    0.14290E-01   -0.11962E-01   240   0.128E+00    0.650E-01
DAV:   6    -0.559468079242E+02    0.28179E-02   -0.64601E-02   260   0.102E+00    0.575E-01
DAV:   7    -0.559444987417E+02    0.23092E-02   -0.46091E-02   260   0.946E-01    0.417E-01
DAV:   8    -0.559427264468E+02    0.17723E-02   -0.19211E-02   260   0.777E-01    0.224E-01
DAV:   9    -0.559423482582E+02    0.37819E-03   -0.72323E-03   240   0.446E-01    0.145E-01
DAV:  10    -0.559420992699E+02    0.24899E-03   -0.16903E-03   240   0.254E-01    0.675E-02
DAV:  11    -0.559420657124E+02    0.33557E-04   -0.50240E-04   260   0.135E-01    0.529E-02
DAV:  12    -0.559420407817E+02    0.24931E-04   -0.27953E-04   220   0.100E-01    0.215E-02
DAV:  13    -0.559420427913E+02   -0.20096E-05   -0.48545E-05   140   0.425E-02
  52 F= -.55942043E+02 E0= -.55840737E+02  d E =-.517394E-01
 curvature: -25.14 expect dE=-0.244E+00 dE for cont linesearch -0.206E-04
 trial: gam= 2.63417 g(F)=  0.969E-02 g(S)=  0.000E+00 ort = 0.720E-04 (trialstep = 0.105E+01)
 search vector abs. value=  0.540E-01
 bond charge predicted
       N       E                     dE             d eps       ncg     rms          rms(c)
DAV:   1    -0.559472170212E+02   -0.51762E-02   -0.34315E+00   160   0.560E+00    0.231E-01
DAV:   2    -0.559553190273E+02   -0.81020E-02   -0.75872E-02   240   0.122E+00    0.611E-01
DAV:   3    -0.559543494252E+02    0.96960E-03   -0.43453E-02   240   0.782E-01    0.450E-01
DAV:   4    -0.559529644201E+02    0.13850E-02   -0.18453E-02   240   0.410E-01    0.217E-01
DAV:   5    -0.559524439496E+02    0.52047E-03   -0.54124E-03   280   0.266E-01    0.146E-01
DAV:   6    -0.559523735182E+02    0.70431E-04   -0.32447E-03   260   0.276E-01    0.133E-01
DAV:   7    -0.559523140707E+02    0.59447E-04   -0.31348E-03   280   0.255E-01    0.129E-01
DAV:   8    -0.559521728483E+02    0.14122E-03   -0.15791E-03   300   0.171E-01    0.438E-02
DAV:   9    -0.559521394297E+02    0.33419E-04   -0.19459E-04   120   0.739E-02    0.248E-02
DAV:  10    -0.559521343141E+02    0.51156E-05   -0.54784E-05   120   0.465E-02
  53 F= -.55952134E+02 E0= -.55850665E+02  d E =-.100915E-01
 ZBRENT: can't locate minimum, use default step
 trial-energy change:   -0.010092  1 .order   -0.010005   -0.010398   -0.009613
 step:   4.2105(harm= 13.9409)  dis= 0.03318  next Energy=   -56.010898 (dE=-0.689E-01)
 bond charge predicted
       N       E                     dE             d eps       ncg     rms          rms(c)
DAV:   1    -0.559273164857E+02    0.24823E-01   -0.30852E+01   160   0.169E+01    0.751E-01
DAV:   2    -0.560090419408E+02   -0.81725E-01   -0.80073E-01   240   0.428E+00    0.182E+00
DAV:   3    -0.560029275722E+02    0.61144E-02   -0.52798E-01   260   0.254E+00    0.157E+00
DAV:   4    -0.559872100058E+02    0.15718E-01   -0.22814E-01   260   0.132E+00    0.673E-01
DAV:   5    -0.559814551614E+02    0.57548E-02   -0.46887E-02   260   0.829E-01    0.460E-01
DAV:   6    -0.559803870014E+02    0.10682E-02   -0.28854E-02   260   0.823E-01    0.396E-01
DAV:   7    -0.559792440110E+02    0.11430E-02   -0.25201E-02   300   0.767E-01    0.347E-01
DAV:   8    -0.559783417028E+02    0.90231E-03   -0.10748E-02   300   0.480E-01    0.150E-01
DAV:   9    -0.559781019846E+02    0.23972E-03   -0.20915E-03   260   0.246E-01    0.996E-02
DAV:  10    -0.559779825231E+02    0.11946E-03   -0.50804E-04   220   0.144E-01    0.507E-02
DAV:  11    -0.559779623888E+02    0.20134E-04   -0.16799E-04   140   0.846E-02    0.404E-02
DAV:  12    -0.559779568721E+02    0.55167E-05   -0.14521E-04   180   0.662E-02    0.208E-02
DAV:  13    -0.559779557997E+02    0.10724E-05   -0.30484E-05   140   0.351E-02
  54 F= -.55977956E+02 E0= -.55876438E+02  d E =-.359130E-01
 curvature: -16.38 expect dE=-0.990E-01 dE for cont linesearch -0.151E-01
 ZBRENT: increasing intervall
 opt :  10.5263  next Energy=   -56.009415 (dE=-0.674E-01)
 bond charge predicted
       N       E                     dE             d eps       ncg     rms          rms(c)
DAV:   1    -0.557521108926E+02    0.22585E+00   -0.12333E+02   160   0.341E+01    0.164E+00
DAV:   2    -0.561345195871E+02   -0.38241E+00   -0.39965E+00   240   0.988E+00    0.330E+00
DAV:   3    -0.561309946177E+02    0.35250E-02   -0.23188E+00   280   0.542E+00    0.347E+00
DAV:   4    -0.560505809684E+02    0.80414E-01   -0.10747E+00   260   0.288E+00    0.136E+00
DAV:   5    -0.560259269621E+02    0.24654E-01   -0.16246E-01   260   0.164E+00    0.971E-01
DAV:   6    -0.560201129002E+02    0.58141E-02   -0.11392E-01   240   0.166E+00    0.815E-01
DAV:   7    -0.560135373146E+02    0.65756E-02   -0.99909E-02   260   0.157E+00    0.605E-01
DAV:   8    -0.560115296618E+02    0.20077E-02   -0.47605E-02   280   0.938E-01    0.374E-01
DAV:   9    -0.560104887495E+02    0.10409E-02   -0.16784E-02   260   0.557E-01    0.247E-01
DAV:  10    -0.560098933181E+02    0.59543E-03   -0.42785E-03   260   0.327E-01    0.146E-01
DAV:  11    -0.560097691795E+02    0.12414E-03   -0.15253E-03   300   0.214E-01    0.110E-01
DAV:  12    -0.560096893376E+02    0.79842E-04   -0.68635E-04   260   0.156E-01    0.616E-02
DAV:  13    -0.560096766988E+02    0.12639E-04   -0.19439E-04   160   0.886E-02    0.404E-02
DAV:  14    -0.560097099432E+02   -0.33244E-04   -0.30616E-05   120   0.297E-02    0.221E-02
DAV:  15    -0.560097468868E+02   -0.36944E-04   -0.17367E-05   100   0.299E-02    0.154E-02
DAV:  16    -0.560097757504E+02   -0.28864E-04   -0.16645E-05   120   0.254E-02    0.936E-03
DAV:  17    -0.560097962066E+02   -0.20456E-04   -0.82558E-06   100   0.168E-02    0.611E-03
DAV:  18    -0.560098170355E+02   -0.20829E-04   -0.53615E-06   120   0.115E-02    0.397E-03
DAV:  19    -0.560098384695E+02   -0.21434E-04   -0.48849E-06   100   0.851E-03    0.217E-03
DAV:  20    -0.560098651231E+02   -0.26654E-04   -0.10188E-05   140   0.823E-03    0.977E-04
[...]
DAV:   3    -0.564123516533E+02    0.90590E-03   -0.33340E-02   220   0.658E-01    0.328E-01
DAV:   4    -0.564114523756E+02    0.89928E-03   -0.10448E-02   260   0.312E-01    0.141E-01
DAV:   5    -0.564111759162E+02    0.27646E-03   -0.20458E-03   260   0.196E-01    0.107E-01
DAV:   6    -0.564111630739E+02    0.12842E-04   -0.10531E-03   260   0.200E-01    0.106E-01
DAV:   7    -0.564110744760E+02    0.88598E-04   -0.10724E-03   280   0.187E-01    0.617E-02
DAV:   8    -0.564110165239E+02    0.57952E-04   -0.30907E-04   240   0.114E-01    0.223E-02
DAV:   9    -0.564110105455E+02    0.59784E-05   -0.29849E-05   140   0.340E-02
 107 F= -.56411011E+02 E0= -.56338437E+02  d E =-.243267E-02
 trial-energy change:   -0.002433  1 .order   -0.002475   -0.003343   -0.001607
 step:  12.0286(harm=  9.4821)  dis= 0.01979  next Energy=   -56.412043 (dE=-0.346E-02)
 bond charge predicted
       N       E                     dE             d eps       ncg     rms          rms(c)
DAV:   1    -0.564053518770E+02    0.56646E-02   -0.44361E+00   160   0.635E+00    0.270E-01
DAV:   2    -0.564170619066E+02   -0.11710E-01   -0.11428E-01   260   0.147E+00    0.788E-01
DAV:   3    -0.564147589572E+02    0.23029E-02   -0.79508E-02   220   0.101E+00    0.492E-01
DAV:   4    -0.564126626590E+02    0.20963E-02   -0.23554E-02   260   0.474E-01    0.210E-01
DAV:   5    -0.564120238673E+02    0.63879E-03   -0.45067E-03   260   0.290E-01    0.152E-01
DAV:   6    -0.564120146502E+02    0.92171E-05   -0.22802E-03   260   0.290E-01    0.157E-01
DAV:   7    -0.564118280296E+02    0.18662E-03   -0.23363E-03   300   0.272E-01    0.905E-02
DAV:   8    -0.564117029824E+02    0.12505E-03   -0.70048E-04   260   0.170E-01    0.323E-02
DAV:   9    -0.564116917590E+02    0.11223E-04   -0.74204E-05   140   0.543E-02    0.270E-02
DAV:  10    -0.564116846119E+02    0.71471E-05   -0.43176E-05   140   0.499E-02
 108 F= -.56411685E+02 E0= -.56339114E+02  d E =-.310674E-02
 curvature:  -7.30 expect dE=-0.527E-02 dE for cont linesearch -0.933E-04
 trial: gam= 0.00000 g(F)=  0.723E-03 g(S)=  0.000E+00 ort =-0.139E-03 (trialstep = 0.634E+01)
 search vector abs. value=  0.723E-03
 bond charge predicted
       N       E                     dE             d eps       ncg     rms          rms(c)
DAV:   1    -0.564114685767E+02    0.22318E-03   -0.17204E+00   160   0.397E+00    0.242E-01
DAV:   2    -0.564190325127E+02   -0.75639E-02   -0.61521E-02   260   0.137E+00    0.705E-01
DAV:   3    -0.564154622449E+02    0.35703E-02   -0.50254E-02   220   0.111E+00    0.443E-01
DAV:   4    -0.564140715375E+02    0.13907E-02   -0.22905E-02   260   0.464E-01    0.234E-01
DAV:   5    -0.564135434594E+02    0.52808E-03   -0.66103E-03   240   0.268E-01    0.140E-01
DAV:   6    -0.564133279640E+02    0.21550E-03   -0.16398E-03   220   0.181E-01    0.714E-02
DAV:   7    -0.564133249408E+02    0.30231E-05   -0.79461E-04   260   0.174E-01    0.621E-02
DAV:   8    -0.564132667683E+02    0.58173E-04   -0.33365E-04   240   0.134E-01    0.183E-02
DAV:   9    -0.564132608541E+02    0.59142E-05   -0.67193E-05   100   0.519E-02
 109 F= -.56413261E+02 E0= -.56341117E+02  d E =-.157624E-02
 trial-energy change:   -0.001576  1 .order   -0.001532   -0.004585    0.001521
 step:   4.8143(harm=  4.7637)  dis= 0.00403  next Energy=   -56.413444 (dE=-0.176E-02)
 bond charge predicted
       N       E                     dE             d eps       ncg     rms          rms(c)
DAV:   1    -0.564133425107E+02   -0.75742E-04   -0.10050E-01   160   0.962E-01    0.555E-02
DAV:   2    -0.564137619290E+02   -0.41942E-03   -0.33971E-03   260   0.324E-01    0.161E-01
DAV:   3    -0.564135636540E+02    0.19827E-03   -0.27244E-03   220   0.259E-01    0.103E-01
DAV:   4    -0.564134902131E+02    0.73441E-04   -0.12369E-03   220   0.105E-01    0.523E-02
DAV:   5    -0.564134616856E+02    0.28527E-04   -0.30375E-04   100   0.594E-02    0.316E-02
DAV:   6    -0.564134504048E+02    0.11281E-04   -0.80047E-05   100   0.464E-02    0.176E-02
DAV:   7    -0.564134497955E+02    0.60934E-06   -0.53145E-05   100   0.471E-02
 110 F= -.56413450E+02 E0= -.56341158E+02  d E =-.176518E-02
 curvature:  -2.38 expect dE=-0.568E-03 dE for cont linesearch -0.503E-08
 trial: gam= 0.33201 g(F)=  0.239E-03 g(S)=  0.000E+00 ort =-0.124E-05 (trialstep = 0.604E+01)
 search vector abs. value=  0.318E-03
 bond charge predicted
       N       E                     dE             d eps       ncg     rms          rms(c)
DAV:   1    -0.564137321639E+02   -0.28176E-03   -0.66611E-01   160   0.247E+00    0.122E-01
DAV:   2    -0.564165170729E+02   -0.27849E-02   -0.24225E-02   240   0.673E-01    0.478E-01
DAV:   3    -0.564153582061E+02    0.11589E-02   -0.22333E-02   200   0.535E-01    0.216E-01
DAV:   4    -0.564148578529E+02    0.50035E-03   -0.55183E-03   220   0.223E-01    0.113E-01
DAV:   5    -0.564146910897E+02    0.16676E-03   -0.11281E-03   240   0.132E-01    0.603E-02
DAV:   6    -0.564146593992E+02    0.31690E-04   -0.36441E-04   220   0.110E-01    0.427E-02
DAV:   7    -0.564146382207E+02    0.21178E-04   -0.22466E-04   260   0.872E-02    0.241E-02
DAV:   8    -0.564146308684E+02    0.73523E-05   -0.55435E-05   120   0.500E-02
 111 F= -.56414631E+02 E0= -.56342389E+02  d E =-.118107E-02
 trial-energy change:   -0.001181  1 .order   -0.001157   -0.001439   -0.000875
 step:  15.4192(harm= 15.4192)  dis= 0.01081  next Energy=   -56.415287 (dE=-0.184E-02)
 bond charge predicted
       N       E                     dE             d eps       ncg     rms          rms(c)
DAV:   1    -0.564131356607E+02    0.15026E-02   -0.16073E+00   160   0.384E+00    0.192E-01
DAV:   2    -0.564199488348E+02   -0.68132E-02   -0.58339E-02   240   0.104E+00    0.752E-01
DAV:   3    -0.564171192038E+02    0.28296E-02   -0.55875E-02   200   0.842E-01    0.338E-01
DAV:   4    -0.564159107096E+02    0.12085E-02   -0.13706E-02   220   0.354E-01    0.183E-01
DAV:   5    -0.564154760588E+02    0.43465E-03   -0.28764E-03   240   0.215E-01    0.907E-02
DAV:   6    -0.564154060709E+02    0.69988E-04   -0.89477E-04   280   0.173E-01    0.659E-02
DAV:   7    -0.564153543248E+02    0.51746E-04   -0.50820E-04   280   0.133E-01    0.347E-02
DAV:   8    -0.564153399848E+02    0.14340E-04   -0.12730E-04   120   0.752E-02    0.179E-02
DAV:   9    -0.564153379427E+02    0.20422E-05   -0.30958E-05   140   0.370E-02
 112 F= -.56415338E+02 E0= -.56343293E+02  d E =-.188815E-02
 curvature: -10.27 expect dE=-0.387E-02 dE for cont linesearch -0.346E-07
 trial: gam= 1.58492 g(F)=  0.376E-03 g(S)=  0.000E+00 ort =-0.103E-05 (trialstep = 0.215E+01)
 search vector abs. value=  0.117E-02
 bond charge predicted
       N       E                     dE             d eps       ncg     rms          rms(c)
DAV:   1    -0.564156640911E+02   -0.32411E-03   -0.31228E-01   160   0.168E+00    0.703E-02
DAV:   2    -0.564162377487E+02   -0.57366E-03   -0.58411E-03   240   0.377E-01    0.893E-02
DAV:   3    -0.564161787838E+02    0.58965E-04   -0.12163E-03   240   0.219E-01    0.910E-02
DAV:   4    -0.564161503131E+02    0.28471E-04   -0.10787E-03   220   0.102E-01    0.694E-02
DAV:   5    -0.564161142224E+02    0.36091E-04   -0.48910E-04   140   0.709E-02    0.420E-02
DAV:   6    -0.564161158839E+02   -0.16614E-05   -0.27725E-04   200   0.815E-02    0.444E-02
DAV:   7    -0.564161046967E+02    0.11187E-04   -0.15194E-04   160   0.834E-02    0.290E-02
DAV:   8    -0.564160940461E+02    0.10651E-04   -0.50070E-05   140   0.546E-02    0.945E-03
DAV:   9    -0.564160932454E+02    0.80069E-06   -0.10339E-05   120   0.213E-02
 113 F= -.56416093E+02 E0= -.56343870E+02  d E =-.755303E-03
 ZBRENT: can't locate minimum, use default step
 trial-energy change:   -0.000755  1 .order   -0.000754   -0.000804   -0.000704
 step:   8.5871(harm= 17.2654)  dis= 0.01273  next Energy=   -56.418572 (dE=-0.323E-02)
 bond charge predicted
       N       E                     dE             d eps       ncg     rms          rms(c)
DAV:   1    -0.564137493272E+02    0.23447E-02   -0.28111E+00   160   0.505E+00    0.212E-01
DAV:   2    -0.564189694913E+02   -0.52202E-02   -0.53380E-02   240   0.119E+00    0.269E-01
DAV:   3    -0.564183603899E+02    0.60910E-03   -0.10201E-02   240   0.649E-01    0.266E-01
DAV:   4    -0.564181306869E+02    0.22970E-03   -0.92000E-03   240   0.292E-01    0.206E-01
DAV:   5    -0.564178052666E+02    0.32542E-03   -0.41929E-03   260   0.208E-01    0.115E-01
DAV:   6    -0.564177973062E+02    0.79604E-05   -0.24162E-03   260   0.235E-01    0.120E-01
DAV:   7    -0.564177015865E+02    0.95720E-04   -0.14931E-03   280   0.227E-01    0.873E-02
DAV:   8    -0.564176123179E+02    0.89269E-04   -0.32227E-04   240   0.128E-01    0.303E-02
DAV:   9    -0.564175975311E+02    0.14787E-04   -0.36916E-05   120   0.473E-02    0.177E-02
DAV:  10    -0.564175951430E+02    0.23881E-05   -0.23566E-05   140   0.353E-02
 114 F= -.56417595E+02 E0= -.56345019E+02  d E =-.225720E-02
 curvature: -18.09 expect dE=-0.238E-02 dE for cont linesearch -0.313E-03
 ZBRENT: increasing intervall
 opt :  21.4677  next Energy=   -56.417035 (dE=-0.170E-02)
 bond charge predicted
       N       E                     dE             d eps       ncg     rms          rms(c)
DAV:   1    -0.564009062741E+02    0.16691E-01   -0.11243E+01   160   0.101E+01    0.439E-01
DAV:   2    -0.564234621535E+02   -0.22556E-01   -0.23087E-01   240   0.262E+00    0.578E-01
DAV:   3    -0.564210134185E+02    0.24487E-02   -0.51353E-02   240   0.137E+00    0.607E-01
DAV:   4    -0.564195877480E+02    0.14257E-02   -0.43323E-02   240   0.625E-01    0.412E-01
DAV:   5    -0.564181151695E+02    0.14726E-02   -0.16648E-02   260   0.410E-01    0.235E-01
DAV:   6    -0.564179579920E+02    0.15718E-03   -0.92003E-03   260   0.460E-01    0.231E-01
DAV:   7    -0.564175991664E+02    0.35883E-03   -0.60470E-03   300   0.453E-01    0.178E-01
DAV:   8    -0.564172623700E+02    0.33680E-03   -0.13024E-03   300   0.256E-01    0.659E-02
DAV:   9    -0.564172028432E+02    0.59527E-04   -0.19908E-04   260   0.103E-01    0.399E-02
DAV:  10    -0.564171874366E+02    0.15407E-04   -0.77960E-05   140   0.680E-02    0.269E-02
DAV:  11    -0.564171817526E+02    0.56840E-05   -0.59396E-05   160   0.496E-02
 115 F= -.56417182E+02 E0= -.56343676E+02  d E =-.184381E-02
 curvature:  32.39 expect dE= 0.205E-01 dE for cont linesearch  0.133E-02
 ZBRENT: bracketing found
 ZBRENT: interpolating
 opt :  13.6613  next Energy=   -56.417956 (dE=-0.262E-02)
 bond charge predicted
       N       E                     dE             d eps       ncg     rms          rms(c)
DAV:   1    -0.564123235725E+02    0.48639E-02   -0.41327E+00   160   0.612E+00    0.253E-01
DAV:   2    -0.564200691829E+02   -0.77456E-02   -0.78889E-02   240   0.139E+00    0.370E-01
DAV:   3    -0.564200023076E+02    0.66875E-04   -0.27619E-02   260   0.816E-01    0.466E-01
DAV:   4    -0.564189397165E+02    0.10626E-02   -0.21803E-02   260   0.432E-01    0.231E-01
DAV:   5    -0.564182886355E+02    0.65108E-03   -0.50797E-03   240   0.256E-01    0.137E-01
DAV:   6    -0.564183813781E+02   -0.92743E-04   -0.27548E-03   240   0.300E-01    0.176E-01
DAV:   7    -0.564181306720E+02    0.25071E-03   -0.17952E-03   300   0.277E-01    0.902E-02
DAV:   8    -0.564180182421E+02    0.11243E-03   -0.69958E-04   260   0.161E-01    0.356E-02
DAV:   9    -0.564179967459E+02    0.21496E-04   -0.10245E-04   140   0.632E-02    0.205E-02
DAV:  10    -0.564179917373E+02    0.50086E-05   -0.41267E-05   140   0.462E-02
 116 F= -.56417992E+02 E0= -.56345047E+02  d E =-.265379E-02
 curvature:  -8.82 expect dE=-0.183E-02 dE for cont linesearch -0.131E-05
 trial: gam= 0.54362 g(F)=  0.207E-03 g(S)=  0.000E+00 ort = 0.132E-04 (trialstep = 0.445E+01)
 search vector abs. value=  0.568E-03
 bond charge predicted
       N       E                     dE             d eps       ncg     rms          rms(c)
DAV:   1    -0.564178763335E+02    0.12041E-03   -0.64716E-01   160   0.243E+00    0.985E-02
DAV:   2    -0.564193054739E+02   -0.14291E-02   -0.14585E-02   240   0.532E-01    0.240E-01
DAV:   3    -0.564191111072E+02    0.19437E-03   -0.80312E-03   220   0.345E-01    0.176E-01
DAV:   4    -0.564188958141E+02    0.21529E-03   -0.32392E-03   240   0.175E-01    0.925E-02
DAV:   5    -0.564188041286E+02    0.91686E-04   -0.74169E-04   220   0.110E-01    0.617E-02
DAV:   6    -0.564187876016E+02    0.16527E-04   -0.41247E-04   240   0.115E-01    0.548E-02
DAV:   7    -0.564187617448E+02    0.25857E-04   -0.36624E-04   260   0.104E-01    0.330E-02
DAV:   8    -0.564187431684E+02    0.18576E-04   -0.77931E-05   120   0.636E-02    0.949E-03
DAV:   9    -0.564187420404E+02    0.11279E-05   -0.14565E-05   140   0.242E-02
 117 F= -.56418742E+02 E0= -.56345732E+02  d E =-.750303E-03
 trial-energy change:   -0.000750  1 .order   -0.000764   -0.000954   -0.000574
 step:  11.1825(harm= 11.1825)  dis= 0.00915  next Energy=   -56.419190 (dE=-0.120E-02)
 bond charge predicted
       N       E                     dE             d eps       ncg     rms          rms(c)
DAV:   1    -0.564171680721E+02    0.15751E-02   -0.14795E+00   160   0.367E+00    0.155E-01
DAV:   2    -0.564206500112E+02   -0.34819E-02   -0.35199E-02   240   0.842E-01    0.390E-01
DAV:   3    -0.564201289464E+02    0.52106E-03   -0.20836E-02   220   0.550E-01    0.278E-01
DAV:   4    -0.564195857019E+02    0.54324E-03   -0.82071E-03   240   0.280E-01    0.147E-01
DAV:   5    -0.564193511946E+02    0.23451E-03   -0.18578E-03   260   0.173E-01    0.939E-02
DAV:   6    -0.564193064139E+02    0.44781E-04   -0.93716E-04   260   0.173E-01    0.811E-02
DAV:   7    -0.564192537149E+02    0.52699E-04   -0.81458E-04   260   0.154E-01    0.504E-02
DAV:   8    -0.564192137822E+02    0.39933E-04   -0.20672E-04   220   0.975E-02    0.149E-02
DAV:   9    -0.564192096672E+02    0.41150E-05   -0.20263E-05   140   0.336E-02
 118 F= -.56419210E+02 E0= -.56346098E+02  d E =-.121793E-02
 curvature: -14.80 expect dE=-0.168E-02 dE for cont linesearch -0.199E-05
 trial: gam= 0.51049 g(F)=  0.114E-03 g(S)=  0.000E+00 ort = 0.873E-05 (trialstep = 0.580E+01)
 search vector abs. value=  0.270E-03
 bond charge predicted
       N       E                     dE             d eps       ncg     rms          rms(c)
DAV:   1    -0.564189794108E+02    0.23437E-03   -0.52430E-01   160   0.219E+00    0.965E-02
DAV:   2    -0.564201065004E+02   -0.11271E-02   -0.11820E-02   240   0.511E-01    0.184E-01
DAV:   3    -0.564200376572E+02    0.68843E-04   -0.67587E-03   220   0.354E-01    0.191E-01
DAV:   4    -0.564198369016E+02    0.20076E-03   -0.36904E-03   220   0.183E-01    0.896E-02
DAV:   5    -0.564197348959E+02    0.10201E-03   -0.83170E-04   240   0.981E-02    0.520E-02
DAV:   6    -0.564197310433E+02    0.38526E-05   -0.33916E-04   220   0.103E-01    0.527E-02
DAV:   7    -0.564197212028E+02    0.98406E-05   -0.24015E-04   200   0.103E-01    0.439E-02
DAV:   8    -0.564196971430E+02    0.24060E-04   -0.86027E-05   140   0.710E-02    0.992E-03
DAV:   9    -0.564196956718E+02    0.14711E-05   -0.18682E-05   120   0.291E-02
 119 F= -.56419696E+02 E0= -.56346799E+02  d E =-.486005E-03
 trial-energy change:   -0.000486  1 .order   -0.000489   -0.000684   -0.000294
 step:  10.1507(harm= 10.1507)  dis= 0.00504  next Energy=   -56.419809 (dE=-0.599E-03)
 bond charge predicted
       N       E                     dE             d eps       ncg     rms          rms(c)
DAV:   1    -0.564193811165E+02    0.31603E-03   -0.29574E-01   160   0.164E+00    0.732E-02
DAV:   2    -0.564199972598E+02   -0.61614E-03   -0.64712E-03   240   0.385E-01    0.126E-01
DAV:   3    -0.564199616081E+02    0.35652E-04   -0.33206E-03   240   0.267E-01    0.138E-01
DAV:   4    -0.564198640003E+02    0.97608E-04   -0.20325E-03   220   0.135E-01    0.709E-02
DAV:   5    -0.564198071127E+02    0.56888E-04   -0.50622E-04   180   0.737E-02    0.394E-02
DAV:   6    -0.564198026697E+02    0.44430E-05   -0.18396E-04   140   0.769E-02    0.390E-02
DAV:   7    -0.564197998149E+02    0.28548E-05   -0.15097E-04   200   0.820E-02    0.329E-02
DAV:   8    -0.564197868927E+02    0.12922E-04   -0.52520E-05   140   0.569E-02    0.861E-03
DAV:   9    -0.564197859707E+02    0.92199E-06   -0.11837E-05   120   0.232E-02
 120 F= -.56419786E+02 E0= -.56347033E+02  d E =-.576304E-03
 curvature: -11.63 expect dE=-0.590E-03 dE for cont linesearch -0.211E-06
 trial: gam= 0.55422 g(F)=  0.507E-04 g(S)=  0.000E+00 ort =-0.221E-05 (trialstep = 0.667E+01)
 search vector abs. value=  0.131E-03
 bond charge predicted
       N       E                     dE             d eps       ncg     rms          rms(c)
DAV:   1    -0.564194941683E+02    0.29272E-03   -0.33717E-01   160   0.176E+00    0.856E-02
DAV:   2    -0.564208665081E+02   -0.13723E-02   -0.13011E-02   260   0.476E-01    0.341E-01
DAV:   3    -0.564203206292E+02    0.54588E-03   -0.12451E-02   240   0.381E-01    0.157E-01
DAV:   4    -0.564200464356E+02    0.27419E-03   -0.26693E-03   260   0.161E-01    0.692E-02
DAV:   5    -0.564199759023E+02    0.70533E-04   -0.44304E-04   200   0.915E-02    0.454E-02
DAV:   6    -0.564199592618E+02    0.16640E-04   -0.14428E-04   140   0.776E-02    0.346E-02
DAV:   7    -0.564199551126E+02    0.41492E-05   -0.17276E-04   260   0.664E-02    0.235E-02
DAV:   8    -0.564199468677E+02    0.82448E-05   -0.50992E-05   140   0.489E-02
 121 F= -.56419947E+02 E0= -.56347309E+02  d E =-.160897E-03
 trial-energy change:   -0.000161  1 .order   -0.000164   -0.000330    0.000002
 step:   6.6288(harm=  6.6288)  dis= 0.00290  next Energy=   -56.419950 (dE=-0.164E-03)
 bond charge predicted
       N       E                     dE             d eps       ncg     rms          rms(c)
DAV:   1    -0.564199457443E+02    0.93682E-05   -0.18853E-05   120   0.191E-02    0.587E-03
DAV:   2    -0.564199496032E+02   -0.38588E-05   -0.41524E-05   140   0.340E-02
 122 F= -.56419950E+02 E0= -.56347303E+02  d E =-.163632E-03
 curvature:  -8.79 expect dE=-0.182E-03 dE for cont linesearch -0.964E-05
 trial: gam= 0.20665 g(F)=  0.207E-04 g(S)=  0.000E+00 ort = 0.120E-04 (trialstep = 0.666E+01)
 search vector abs. value=  0.312E-04
 bond charge predicted
       N       E                     dE             d eps       ncg     rms          rms(c)
DAV:   1    -0.564199020880E+02    0.43656E-04   -0.80207E-02   160   0.857E-01    0.509E-02
DAV:   2    -0.564204593775E+02   -0.55729E-03   -0.54507E-03   260   0.300E-01    0.245E-01
DAV:   3    -0.564201600460E+02    0.29933E-03   -0.60327E-03   260   0.247E-01    0.927E-02
DAV:   4    -0.564200328978E+02    0.12715E-03   -0.93862E-04   180   0.942E-02    0.349E-02
DAV:   5    -0.564200089235E+02    0.23974E-04   -0.13414E-04   140   0.530E-02    0.249E-02
DAV:   6    -0.564200041578E+02    0.47657E-05   -0.42439E-05   120   0.426E-02
 123 F= -.56420004E+02 E0= -.56347307E+02  d E =-.545546E-04
 trial-energy change:   -0.000055  1 .order   -0.000080   -0.000154   -0.000006
 step:   6.9490(harm=  6.9490)  dis= 0.00104  next Energy=   -56.420030 (dE=-0.804E-04)
 bond charge predicted
       N       E                     dE             d eps       ncg     rms          rms(c)
DAV:   1    -0.564200035112E+02    0.54123E-05   -0.21665E-04   200   0.605E-02    0.150E-02
DAV:   2    -0.564200437276E+02   -0.40216E-04   -0.30852E-04   120   0.987E-02    0.641E-02
DAV:   3    -0.564200153067E+02    0.28421E-04   -0.45593E-04   140   0.829E-02    0.365E-02
DAV:   4    -0.564200032689E+02    0.12038E-04   -0.12144E-04   100   0.301E-02    0.104E-02
DAV:   5    -0.564200007682E+02    0.25007E-05   -0.20219E-05    80   0.174E-02
 124 F= -.56420001E+02 E0= -.56347350E+02  d E =-.511651E-04
 curvature:  -4.69 expect dE=-0.368E-04 dE for cont linesearch -0.382E-06
 trial: gam= 0.40193 g(F)=  0.785E-05 g(S)=  0.000E+00 ort =-0.159E-05 (trialstep = 0.672E+01)
 search vector abs. value=  0.116E-04
 reached required accuracy - stopping structural energy minimisation
