 running on   35 total cores
 distrk:  each k-point on   35 cores,    1 groups
 distr:  one band on    1 cores,   35 groups
 using from now: INCAR     
 vasp.5.4.1 24Jun15 (build Oct 26 2018 17:15:27) complex                        
  
 POSCAR found type information on POSCAR  Pt
 POSCAR found :  1 types and       8 ions
 scaLAPACK will be used

 ----------------------------------------------------------------------------- 
|                                                                             |
|           W    W    AA    RRRRR   N    N  II  N    N   GGGG   !!!           |
|           W    W   A  A   R    R  NN   N  II  NN   N  G    G  !!!           |
|           W    W  A    A  R    R  N N  N  II  N N  N  G       !!!           |
|           W WW W  AAAAAA  RRRRR   N  N N  II  N  N N  G  GGG   !            |
|           WW  WW  A    A  R   R   N   NN  II  N   NN  G    G                |
|           W    W  A    A  R    R  N    N  II  N    N   GGGG   !!!           |
|                                                                             |
|      For optimal performance we recommend to set                            |
|        NCORE= 4 - approx SQRT( number of cores)                             |
|      NCORE specifies how many cores store one orbital (NPAR=cpu/NCORE).     |
|      This setting can  greatly improve the performance of VASP for DFT.     |
|      The default, NPAR=number of cores might be grossly inefficient         |
|      on modern multi-core architectures or massively parallel machines.     |
|      Do your own testing !!!!                                               |
|      Unfortunately you need to use the default for GW and RPA calculations. |
|      (for HF NCORE is supported but not extensively tested yet)             |
|                                                                             |
 ----------------------------------------------------------------------------- 


 ----------------------------------------------------------------------------- 
|                                                                             |
|  ADVICE TO THIS USER RUNNING 'VASP/VAMP'   (HEAR YOUR MASTER'S VOICE ...):  |
|                                                                             |
|      You have a (more or less) 'small supercell' and for smaller cells      |
|      it is recommended  to use the reciprocal-space projection scheme!      |
|      The real space optimization is not  efficient for small cells and it   |
|      is also less accurate ...                                              |
|      Therefore set LREAL=.FALSE. in the  INCAR file                         |
|                                                                             |
 ----------------------------------------------------------------------------- 

 LDA part: xc-table for Ceperly-Alder, standard interpolation
 POSCAR, INCAR and KPOINTS ok, starting setup
 WARNING: small aliasing (wrap around) errors must be expected
 FFT: planning ...
 WAVECAR not read
 WARNING: random wavefunctions but no delay for mixing, default for NELMDL
 entering main loop
       N       E                     dE             d eps       ncg     rms          rms(c)
DAV:   1     0.706549202956E+03    0.70655E+03   -0.33901E+04  8960   0.989E+02
DAV:   2    -0.190462777610E+02   -0.72560E+03   -0.61318E+03  8960   0.303E+02
DAV:   3    -0.481412360737E+02   -0.29095E+02   -0.28508E+02 13405   0.638E+01
DAV:   4    -0.484533612468E+02   -0.31213E+00   -0.31205E+00  9415   0.750E+00
DAV:   5    -0.484628774487E+02   -0.95162E-02   -0.95159E-02 13545   0.118E+00    0.106E+01
DAV:   6    -0.513934028236E+02   -0.29305E+01   -0.36242E+01 14665   0.309E+01    0.156E+01
DAV:   7    -0.491308781922E+02    0.22625E+01   -0.83348E+01 15330   0.336E+01    0.978E+00
DAV:   8    -0.578677697956E+02   -0.87369E+01   -0.10382E+02 16520   0.495E+01    0.168E+01
DAV:   9    -0.468129975636E+02    0.11055E+02   -0.44233E+01 15820   0.289E+01    0.866E+00
DAV:  10    -0.459856512522E+02    0.82735E+00   -0.22563E+00 14245   0.718E+00    0.476E+00
DAV:  11    -0.457250344487E+02    0.26062E+00   -0.38242E-01 13965   0.356E+00    0.298E+00
DAV:  12    -0.456630273534E+02    0.62007E-01   -0.41155E-01 15225   0.310E+00    0.219E+00
DAV:  13    -0.455897002473E+02    0.73327E-01   -0.20388E-01 13895   0.268E+00    0.117E+00
DAV:  14    -0.455741279580E+02    0.15572E-01   -0.84528E-02 13860   0.162E+00    0.622E-01
DAV:  15    -0.455842157991E+02   -0.10088E-01   -0.19036E-01 14945   0.151E+00    0.114E+00
DAV:  16    -0.455737143374E+02    0.10501E-01   -0.21577E-02 13965   0.808E-01    0.747E-01
DAV:  17    -0.455678305850E+02    0.58838E-02   -0.87213E-02 15330   0.978E-01    0.359E-01
DAV:  18    -0.455662605060E+02    0.15701E-02   -0.89281E-03 14315   0.343E-01    0.764E-02
DAV:  19    -0.455660576240E+02    0.20288E-03   -0.42590E-04 13895   0.125E-01    0.541E-02
DAV:  20    -0.455660121481E+02    0.45476E-04   -0.10553E-03 13685   0.122E-01    0.119E-01
DAV:  21    -0.455657523585E+02    0.25979E-03   -0.13112E-03 11515   0.117E-01    0.137E-02
DAV:  22    -0.455658660001E+02   -0.11364E-03   -0.12625E-03  9905   0.947E-02    0.111E-01
DAV:  23    -0.455657604833E+02    0.10552E-03   -0.16005E-03 10010   0.130E-01    0.255E-02
DAV:  24    -0.455658118962E+02   -0.51413E-04   -0.30880E-05  9730   0.174E-02    0.353E-02
DAV:  25    -0.455658634919E+02   -0.51596E-04   -0.44663E-05  8995   0.267E-02    0.140E-02
DAV:  26    -0.455659058762E+02   -0.42384E-04   -0.31735E-05  9730   0.136E-02    0.295E-03
DAV:  27    -0.455659614050E+02   -0.55529E-04   -0.18318E-04  9905   0.400E-02    0.427E-02
DAV:  28    -0.455659497415E+02    0.11663E-04   -0.96183E-05 10430   0.298E-02    0.105E-02
DAV:  29    -0.455659682958E+02   -0.18554E-04   -0.17308E-04 10115   0.365E-02    0.316E-02
DAV:  30    -0.455659632048E+02    0.50911E-05   -0.24882E-05  9590   0.157E-02
   1 F= -.45565963E+02 E0= -.45565501E+02  d E =-.455660E+02
 curvature:   0.00 expect dE= 0.000E+00 dE for cont linesearch  0.000E+00
 trial: gam= 0.00000 g(F)=  0.148E-01 g(S)=  0.000E+00 ort = 0.000E+00 (trialstep = 0.100E+01)
 search vector abs. value=  0.148E-01
 bond charge predicted
       N       E                     dE             d eps       ncg     rms          rms(c)
DAV:   1    -0.455795570329E+02   -0.13589E-01   -0.86643E-01  8960   0.244E+00    0.119E-01
DAV:   2    -0.456016840662E+02   -0.22127E-01   -0.16908E-01 15155   0.134E+00    0.125E+00
DAV:   3    -0.455840600501E+02    0.17624E-01   -0.22535E-01 15050   0.142E+00    0.518E-01
DAV:   4    -0.455805873337E+02    0.34727E-02   -0.21785E-02 13615   0.563E-01    0.123E-01
DAV:   5    -0.455804522058E+02    0.13513E-03   -0.15009E-03 14630   0.191E-01    0.954E-02
DAV:   6    -0.455803309018E+02    0.12130E-03   -0.10691E-03 15435   0.122E-01    0.418E-02
DAV:   7    -0.455803614806E+02   -0.30579E-04   -0.61107E-04 13825   0.114E-01    0.633E-02
DAV:   8    -0.455803168422E+02    0.44638E-04   -0.18222E-04 12705   0.811E-02    0.348E-02
DAV:   9    -0.455803031848E+02    0.13657E-04   -0.49804E-05  9975   0.373E-02    0.143E-02
DAV:  10    -0.455803006947E+02    0.24901E-05   -0.34005E-05  9485   0.207E-02
   2 F= -.45580301E+02 E0= -.45579816E+02  d E =-.143375E-01
 ZBRENT: can't locate minimum, use default step
 trial-energy change:   -0.014337  1 .order   -0.014362   -0.014848   -0.013876
 step:   4.0000(harm= 15.2726)  dis= 0.03390  next Energy=   -45.679350 (dE=-0.113E+00)
 bond charge predicted
       N       E                     dE             d eps       ncg     rms          rms(c)
DAV:   1    -0.456088411425E+02   -0.28538E-01   -0.77940E+00  8960   0.733E+00    0.433E-01
DAV:   2    -0.460703276940E+02   -0.46149E+00   -0.34433E+00 15120   0.629E+00    0.546E+00
DAV:   3    -0.456555413376E+02    0.41479E+00   -0.32775E+00 15295   0.582E+00    0.153E+00
DAV:   4    -0.456199037518E+02    0.35638E-01   -0.20282E-01 14280   0.190E+00    0.461E-01
DAV:   5    -0.456179185172E+02    0.19852E-02   -0.17620E-02 13790   0.677E-01    0.311E-01
DAV:   6    -0.456165792889E+02    0.13392E-02   -0.84158E-03 14875   0.375E-01    0.132E-01
DAV:   7    -0.456165706542E+02    0.86348E-05   -0.22829E-03 13510   0.284E-01    0.139E-01
DAV:   8    -0.456164757436E+02    0.94911E-04   -0.16427E-03 12600   0.246E-01    0.128E-01
DAV:   9    -0.456162989903E+02    0.17675E-03   -0.71709E-04 14770   0.144E-01    0.527E-02
DAV:  10    -0.456162591306E+02    0.39860E-04   -0.14136E-04 10920   0.731E-02    0.162E-02
DAV:  11    -0.456162568516E+02    0.22790E-05   -0.51445E-05 11725   0.311E-02
   3 F= -.45616257E+02 E0= -.45615744E+02  d E =-.502936E-01
 curvature:  -2.87 expect dE=-0.205E-01 dE for cont linesearch -0.202E-01
 ZBRENT: increasing intervall
 opt :  10.0000  next Energy=   -45.655557 (dE=-0.896E-01)
 bond charge predicted
       N       E                     dE             d eps       ncg     rms          rms(c)
DAV:   1    -0.456149637258E+02    0.12954E-02   -0.31182E+01  8960   0.147E+01    0.109E+00
DAV:   2    -0.482594660637E+02   -0.26445E+01   -0.21319E+01 15960   0.172E+01    0.100E+01
DAV:   3    -0.459148961360E+02    0.23446E+01   -0.13803E+01 15540   0.138E+01    0.404E+00
DAV:   4    -0.456732198975E+02    0.24168E+00   -0.15098E+00 15120   0.505E+00    0.985E-01
DAV:   5    -0.456614844437E+02    0.11735E-01   -0.11539E-01 11655   0.161E+00    0.533E-01
DAV:   6    -0.456583021537E+02    0.31823E-02   -0.20157E-02 15365   0.733E-01    0.377E-01
DAV:   7    -0.456569983943E+02    0.13038E-02   -0.12164E-02 12915   0.617E-01    0.249E-01
DAV:   8    -0.456598835219E+02   -0.28851E-02   -0.25357E-02 13860   0.687E-01    0.607E-01
DAV:   9    -0.456563960531E+02    0.34875E-02   -0.11458E-02 14245   0.418E-01    0.214E-01
DAV:  10    -0.456559436969E+02    0.45236E-03   -0.12595E-03 15540   0.172E-01    0.100E-01
DAV:  11    -0.456558393195E+02    0.10438E-03   -0.14591E-03 15295   0.143E-01    0.486E-02
DAV:  12    -0.456558238889E+02    0.15431E-04   -0.45961E-05 11305   0.355E-02    0.354E-02
DAV:  13    -0.456558106973E+02    0.13192E-04   -0.47362E-05  9625   0.299E-02    0.128E-02
DAV:  14    -0.456558091610E+02    0.15363E-05   -0.89376E-06  9065   0.153E-02
   4 F= -.45655809E+02 E0= -.45655257E+02  d E =-.898460E-01
 curvature:  -5.59 expect dE=-0.647E-02 dE for cont linesearch -0.364E-02
 ZBRENT: extrapolating
 opt :  12.6250  next Energy=   -45.659889 (dE=-0.939E-01)
 bond charge predicted
       N       E                     dE             d eps       ncg     rms          rms(c)
DAV:   1    -0.456555994296E+02    0.21127E-03   -0.59668E+00  8960   0.638E+00    0.470E-01
DAV:   2    -0.463900846724E+02   -0.73449E+00   -0.55333E+00 16240   0.769E+00    0.654E+00
DAV:   3    -0.457069022231E+02    0.68318E+00   -0.45008E+00 15820   0.701E+00    0.167E+00
DAV:   4    -0.456634945444E+02    0.43408E-01   -0.26213E-01 14525   0.209E+00    0.412E-01
DAV:   5    -0.456617303617E+02    0.17642E-02   -0.18676E-02 13405   0.747E-01    0.280E-01
DAV:   6    -0.456607066360E+02    0.10237E-02   -0.74620E-03 15120   0.399E-01    0.136E-01
DAV:   7    -0.456606162779E+02    0.90358E-04   -0.22398E-03 12250   0.288E-01    0.115E-01
DAV:   8    -0.456606234209E+02   -0.71430E-05   -0.16347E-03 13510   0.230E-01    0.139E-01
DAV:   9    -0.456604269672E+02    0.19645E-03   -0.95650E-04 14980   0.139E-01    0.380E-02
DAV:  10    -0.456604021749E+02    0.24792E-04   -0.97842E-05 10780   0.629E-02    0.142E-02
DAV:  11    -0.456604017942E+02    0.38069E-06   -0.29367E-05 10360   0.219E-02
   5 F= -.45660402E+02 E0= -.45659792E+02  d E =-.944386E-01
 curvature:  -6.27 expect dE=-0.524E-02 dE for cont linesearch -0.377E-05
 trial: gam= 0.04994 g(F)=  0.836E-03 g(S)=  0.000E+00 ort = 0.945E-04 (trialstep = 0.332E+01)
 search vector abs. value=  0.882E-03
 bond charge predicted
       N       E                     dE             d eps       ncg     rms          rms(c)
DAV:   1    -0.456621913166E+02   -0.17891E-02   -0.55409E-01  9030   0.200E+00    0.665E-02
DAV:   2    -0.456709289300E+02   -0.87376E-02   -0.63854E-02 15155   0.817E-01    0.787E-01
DAV:   3    -0.456630550615E+02    0.78739E-02   -0.67703E-02 15330   0.811E-01    0.132E-01
DAV:   4    -0.456628711308E+02    0.18393E-03   -0.23064E-03 12495   0.189E-01    0.982E-02
DAV:   5    -0.456627515240E+02    0.11961E-03   -0.72030E-04 11935   0.116E-01    0.401E-02
DAV:   6    -0.456627339479E+02    0.17576E-04   -0.96115E-05 13055   0.542E-02    0.285E-02
DAV:   7    -0.456627247061E+02    0.92418E-05   -0.83963E-05 11515   0.483E-02
   6 F= -.45662725E+02 E0= -.45662108E+02  d E =-.232291E-02
 trial-energy change:   -0.002323  1 .order   -0.002377   -0.002795   -0.001959
 step:  11.1139(harm= 11.1139)  dis= 0.02202  next Energy=   -45.665074 (dE=-0.467E-02)
 bond charge predicted
       N       E                     dE             d eps       ncg     rms          rms(c)
DAV:   1    -0.456618265648E+02    0.90738E-03   -0.30377E+00  8960   0.468E+00    0.168E-01
DAV:   2    -0.457297905759E+02   -0.67964E-01   -0.50000E-01 15155   0.229E+00    0.233E+00
DAV:   3    -0.456669372384E+02    0.62853E-01   -0.56537E-01 15400   0.221E+00    0.308E-01
DAV:   4    -0.456658913539E+02    0.10459E-02   -0.14142E-02 12285   0.476E-01    0.257E-01
DAV:   5    -0.456650455639E+02    0.84579E-03   -0.53380E-03 14490   0.312E-01    0.899E-02
DAV:   6    -0.456649608490E+02    0.84715E-04   -0.58209E-04 15225   0.141E-01    0.698E-02
DAV:   7    -0.456649274758E+02    0.33373E-04   -0.73385E-04 13650   0.149E-01    0.552E-02
DAV:   8    -0.456648908215E+02    0.36654E-04   -0.41567E-04 13230   0.117E-01    0.364E-02
DAV:   9    -0.456648786284E+02    0.12193E-04   -0.65302E-05  9485   0.468E-02    0.177E-02
DAV:  10    -0.456648756262E+02    0.30022E-05   -0.13883E-05  9625   0.268E-02
   7 F= -.45664876E+02 E0= -.45664282E+02  d E =-.447383E-02
 curvature:  -5.83 expect dE=-0.615E-03 dE for cont linesearch -0.681E-05
 trial: gam= 0.19739 g(F)=  0.105E-03 g(S)=  0.000E+00 ort =-0.321E-04 (trialstep = 0.488E+01)
 search vector abs. value=  0.127E-03
 bond charge predicted
       N       E                     dE             d eps       ncg     rms          rms(c)
DAV:   1    -0.456650862741E+02   -0.20765E-03   -0.17553E-01  8960   0.111E+00    0.649E-02
DAV:   2    -0.456867209622E+02   -0.21635E-01   -0.15854E-01 16695   0.121E+00    0.127E+00
DAV:   3    -0.456658278457E+02    0.20893E-01   -0.15770E-01 16100   0.121E+00    0.162E-01
DAV:   4    -0.456653017790E+02    0.52607E-03   -0.31854E-03 12005   0.228E-01    0.661E-02
DAV:   5    -0.456652680935E+02    0.33685E-04   -0.53032E-04 14945   0.115E-01    0.509E-02
DAV:   6    -0.456652341011E+02    0.33992E-04   -0.18071E-04  9870   0.697E-02    0.213E-02
DAV:   7    -0.456652347569E+02   -0.65582E-06   -0.60638E-05 11025   0.499E-02
   8 F= -.45665235E+02 E0= -.45664642E+02  d E =-.359131E-03
 trial-energy change:   -0.000359  1 .order   -0.000385   -0.000484   -0.000286
 step:  11.9098(harm= 11.9098)  dis= 0.00709  next Energy=   -45.665466 (dE=-0.590E-03)
 bond charge predicted
       N       E                     dE             d eps       ncg     rms          rms(c)
DAV:   1    -0.456649238600E+02    0.31024E-03   -0.36405E-01  8960   0.160E+00    0.985E-02
DAV:   2    -0.457149960853E+02   -0.50072E-01   -0.37177E-01 16730   0.185E+00    0.197E+00
DAV:   3    -0.456666330585E+02    0.48363E-01   -0.37925E-01 16205   0.183E+00    0.253E-01
DAV:   4    -0.456653689913E+02    0.12641E-02   -0.76083E-03 12005   0.352E-01    0.984E-02
DAV:   5    -0.456652957334E+02    0.73258E-04   -0.11225E-03 14875   0.174E-01    0.749E-02
DAV:   6    -0.456652229280E+02    0.72805E-04   -0.40481E-04 13230   0.105E-01    0.306E-02
DAV:   7    -0.456652246957E+02   -0.17677E-05   -0.13020E-04 11865   0.734E-02    0.317E-02
DAV:   8    -0.456652103041E+02    0.14392E-04   -0.76883E-05  9485   0.525E-02    0.870E-03
DAV:   9    -0.456652105545E+02   -0.25039E-06   -0.13143E-05 10010   0.242E-02
   9 F= -.45665211E+02 E0= -.45664615E+02  d E =-.334928E-03
 curvature:  -7.64 expect dE=-0.249E-03 dE for cont linesearch -0.118E-03
 ZBRENT: interpolating
 opt :   8.8768  next Energy=   -45.665278 (dE=-0.402E-03)
 bond charge predicted
       N       E                     dE             d eps       ncg     rms          rms(c)
DAV:   1    -0.456652448639E+02   -0.34560E-04   -0.68042E-02  8960   0.690E-01    0.386E-02
DAV:   2    -0.456731539082E+02   -0.79090E-02   -0.57046E-02 16520   0.703E-01    0.812E-01
DAV:   3    -0.456655305057E+02    0.76234E-02   -0.58191E-02 15785   0.721E-01    0.100E-01
DAV:   4    -0.456653224195E+02    0.20809E-03   -0.12954E-03 11760   0.142E-01    0.388E-02
DAV:   5    -0.456653104237E+02    0.11996E-04   -0.20731E-04 12915   0.691E-02    0.309E-02
DAV:   6    -0.456652980355E+02    0.12388E-04   -0.56592E-05  8855   0.427E-02    0.146E-02
DAV:   7    -0.456652971597E+02    0.87583E-06   -0.24675E-05  8505   0.324E-02
  10 F= -.45665297E+02 E0= -.45664704E+02  d E =-.421534E-03
 curvature:  -4.34 expect dE=-0.783E-04 dE for cont linesearch -0.129E-04
 trial: gam= 0.00000 g(F)=  0.180E-04 g(S)=  0.000E+00 ort =-0.194E-04 (trialstep = 0.568E+01)
 search vector abs. value=  0.180E-04
 bond charge predicted
       N       E                     dE             d eps       ncg     rms          rms(c)
DAV:   1    -0.456653251303E+02   -0.27095E-04   -0.33049E-02  8960   0.492E-01    0.172E-02
DAV:   2    -0.456656295755E+02   -0.30445E-03   -0.22914E-03 14945   0.165E-01    0.146E-01
DAV:   3    -0.456653895410E+02    0.24003E-03   -0.22718E-03 11865   0.152E-01    0.452E-02
DAV:   4    -0.456653693676E+02    0.20173E-04   -0.23784E-04  8085   0.637E-02    0.252E-02
DAV:   5    -0.456653613366E+02    0.80310E-05   -0.49370E-05  9590   0.341E-02
  11 F= -.45665361E+02 E0= -.45664762E+02  d E =-.641770E-04
 trial-energy change:   -0.000064  1 .order   -0.000074   -0.000103   -0.000045
 step:  10.1395(harm= 10.1395)  dis= 0.00243  next Energy=   -45.665389 (dE=-0.915E-04)
 bond charge predicted
       N       E                     dE             d eps       ncg     rms          rms(c)
DAV:   1    -0.456653604534E+02    0.89142E-05   -0.20419E-02  8960   0.387E-01    0.160E-02
DAV:   2    -0.456654017902E+02   -0.41337E-04   -0.35891E-04 12285   0.796E-02    0.422E-02
DAV:   3    -0.456653982229E+02    0.35673E-05   -0.28851E-04 10395   0.695E-02    0.404E-02
DAV:   4    -0.456653863640E+02    0.11859E-04   -0.22029E-04 10395   0.481E-02    0.244E-02
DAV:   5    -0.456653789067E+02    0.74572E-05   -0.48825E-05  8680   0.285E-02
  12 F= -.45665379E+02 E0= -.45664775E+02  d E =-.817470E-04
 curvature:  -5.07 expect dE=-0.420E-04 dE for cont linesearch -0.250E-05
 trial: gam= 0.00000 g(F)=  0.828E-05 g(S)=  0.000E+00 ort =-0.298E-05 (trialstep = 0.657E+01)
 search vector abs. value=  0.828E-05
 reached required accuracy - stopping structural energy minimisation
 writing wavefunctions
