 running on   20 total cores
 distrk:  each k-point on   20 cores,    1 groups
 distr:  one band on    1 cores,   20 groups
 using from now: INCAR     
 vasp.5.4.1 05Feb16 (build Sep 02 2018 21:45:25) complex                        
  
 POSCAR found type information on POSCAR  Cu H 
 POSCAR found :  2 types and      65 ions
 scaLAPACK will be used

 ----------------------------------------------------------------------------- 
|                                                                             |
|           W    W    AA    RRRRR   N    N  II  N    N   GGGG   !!!           |
|           W    W   A  A   R    R  NN   N  II  NN   N  G    G  !!!           |
|           W    W  A    A  R    R  N N  N  II  N N  N  G       !!!           |
|           W WW W  AAAAAA  RRRRR   N  N N  II  N  N N  G  GGG   !            |
|           WW  WW  A    A  R   R   N   NN  II  N   NN  G    G                |
|           W    W  A    A  R    R  N    N  II  N    N   GGGG   !!!           |
|                                                                             |
|      For optimal performance we recommend to set                            |
|        NCORE= 4 - approx SQRT( number of cores)                             |
|      NCORE specifies how many cores store one orbital (NPAR=cpu/NCORE).     |
|      This setting can  greatly improve the performance of VASP for DFT.     |
|      The default, NPAR=number of cores might be grossly inefficient         |
|      on modern multi-core architectures or massively parallel machines.     |
|      Do your own testing !!!!                                               |
|      Unfortunately you need to use the default for GW and RPA calculations. |
|      (for HF NCORE is supported but not extensively tested yet)             |
|                                                                             |
 ----------------------------------------------------------------------------- 

 LDA part: xc-table for Ceperly-Alder, standard interpolation
 POSCAR, INCAR and KPOINTS ok, starting setup
 WARNING: small aliasing (wrap around) errors must be expected
 FFT: planning ...
 WAVECAR not read
 entering main loop
       N       E                     dE             d eps       ncg     rms          rms(c)
DAV:   1     0.556193752956E+04    0.55619E+04   -0.31053E+05 22000   0.190E+03
DAV:   2     0.366115254965E+03   -0.51958E+04   -0.49429E+04 22000   0.421E+02
DAV:   3    -0.251223171724E+03   -0.61734E+03   -0.57210E+03 22160   0.174E+02
DAV:   4    -0.276597103717E+03   -0.25374E+02   -0.25090E+02 23840   0.408E+01
DAV:   5    -0.276792947799E+03   -0.19584E+00   -0.19568E+00 23780   0.322E+00    0.532E+01
DAV:   6    -0.250724950575E+03    0.26068E+02   -0.53981E+02 24000   0.905E+01    0.269E+01
DAV:   7    -0.227966052612E+03    0.22759E+02   -0.10564E+02 24800   0.439E+01    0.386E+00
DAV:   8    -0.228145962717E+03   -0.17991E+00   -0.83643E+00 25000   0.234E+01    0.523E+00
DAV:   9    -0.227860988359E+03    0.28497E+00   -0.31460E+00 24440   0.195E+01    0.362E+00
DAV:  10    -0.227673955854E+03    0.18703E+00   -0.13760E+00 27280   0.116E+01    0.282E+00
DAV:  11    -0.227514258175E+03    0.15970E+00   -0.52094E-01 23840   0.435E+00    0.738E-01
DAV:  12    -0.227510992962E+03    0.32652E-02   -0.14525E-01 23560   0.235E+00    0.387E-01
DAV:  13    -0.227502122306E+03    0.88707E-02   -0.49082E-02 23160   0.160E+00    0.232E-01
DAV:  14    -0.227494928078E+03    0.71942E-02   -0.13425E-02 23160   0.725E-01    0.108E-01
DAV:  15    -0.227490866492E+03    0.40616E-02   -0.40649E-03 22920   0.561E-01    0.108E-01
DAV:  16    -0.227490577327E+03    0.28916E-03   -0.17459E-03 22960   0.365E-01    0.769E-02
DAV:  17    -0.227493694097E+03   -0.31168E-02   -0.30107E-03 22600   0.470E-01    0.715E-02
DAV:  18    -0.227498493464E+03   -0.47994E-02   -0.15709E-03 23020   0.175E-01    0.594E-02
DAV:  19    -0.227501447064E+03   -0.29536E-02   -0.75854E-04 22900   0.193E-01    0.390E-02
DAV:  20    -0.227505381880E+03   -0.39348E-02   -0.68633E-03 37740   0.699E-01    0.907E-02
DAV:  21    -0.227505175444E+03    0.20644E-03   -0.79480E-04 27840   0.147E-01    0.691E-02
DAV:  22    -0.227504971646E+03    0.20380E-03   -0.33272E-04 35440   0.130E-01    0.461E-02
DAV:  23    -0.227504941310E+03    0.30336E-04   -0.29960E-04 37120   0.129E-01    0.243E-02
DAV:  24    -0.227505037262E+03   -0.95952E-04   -0.31235E-04 22940   0.585E-02    0.337E-02
DAV:  25    -0.227505064894E+03   -0.27632E-04   -0.13406E-05 15840   0.283E-02    0.366E-02
DAV:  26    -0.227505229613E+03   -0.16472E-03   -0.16713E-04 15180   0.126E-01    0.566E-02
DAV:  27    -0.227505073536E+03    0.15608E-03   -0.16254E-04 23540   0.141E-01    0.298E-02
DAV:  28    -0.227505014938E+03    0.58599E-04   -0.53115E-04 26960   0.235E-01    0.112E-02
DAV:  29    -0.227505021762E+03   -0.68245E-05   -0.46134E-05 25340   0.199E-02    0.164E-02
DAV:  30    -0.227505022213E+03   -0.45096E-06   -0.38088E-06 21040   0.651E-03
   1 F= -.22750502E+03 E0= -.22750440E+03  d E =-.124735E-02
 Finite differences POTIM= 0.02000 DOF=   3
 bond charge predicted
       N       E                     dE             d eps       ncg     rms          rms(c)
DAV:   1    -0.227504539429E+03    0.48233E-03   -0.12045E-01 22580   0.318E-01    0.907E-02
DAV:   2    -0.227504726065E+03   -0.18664E-03   -0.26655E-03 32360   0.443E-01    0.774E-02
DAV:   3    -0.227504608958E+03    0.11711E-03   -0.24828E-03 25040   0.564E-01    0.584E-02
DAV:   4    -0.227504502199E+03    0.10676E-03   -0.60035E-04 26820   0.297E-01    0.367E-02
DAV:   5    -0.227504484098E+03    0.18102E-04   -0.14674E-04 23280   0.121E-01    0.543E-03
DAV:   6    -0.227504487278E+03   -0.31806E-05   -0.43199E-05 23020   0.237E-02    0.511E-03
DAV:   7    -0.227504486978E+03    0.30051E-06   -0.45198E-06 22940   0.161E-02
   2 F= -.22750449E+03 E0= -.22750386E+03  d E =-.124973E-02
 Finite differences progress:
  Degree of freedom:   1/  3
  Displacement:        1/  2
  Total:               1/  6
 bond charge predicted
       N       E                     dE             d eps       ncg     rms          rms(c)
DAV:   1    -0.227504638396E+03   -0.15112E-03   -0.48051E-01 22320   0.636E-01    0.178E-01
DAV:   2    -0.227504697891E+03   -0.59495E-04   -0.63159E-03 24000   0.356E-01    0.104E-01
DAV:   3    -0.227504665009E+03    0.32882E-04   -0.14824E-03 24460   0.533E-01    0.104E-01
DAV:   4    -0.227504490168E+03    0.17484E-03   -0.64484E-04 25020   0.291E-01    0.176E-02
DAV:   5    -0.227504499025E+03   -0.88568E-05   -0.27544E-04 32500   0.139E-01    0.134E-02
DAV:   6    -0.227504494731E+03    0.42937E-05   -0.65112E-05 28140   0.676E-02    0.831E-03
DAV:   7    -0.227504493986E+03    0.74538E-06   -0.11657E-05 23000   0.263E-02    0.470E-03
DAV:   8    -0.227504493897E+03    0.88563E-07   -0.48479E-06 22900   0.156E-02
   3 F= -.22750449E+03 E0= -.22750387E+03  d E =-.124944E-02
 Finite differences progress:
  Degree of freedom:   1/  3
  Displacement:        2/  2
  Total:               2/  6
 bond charge predicted
       N       E                     dE             d eps       ncg     rms          rms(c)
DAV:   1    -0.227504566786E+03   -0.72801E-04   -0.24051E-01 22300   0.447E-01    0.125E-01
DAV:   2    -0.227504605096E+03   -0.38310E-04   -0.31925E-03 23940   0.245E-01    0.726E-02
DAV:   3    -0.227504591269E+03    0.13827E-04   -0.72365E-04 24460   0.370E-01    0.733E-02
DAV:   4    -0.227504500681E+03    0.90588E-04   -0.30401E-04 24840   0.198E-01    0.723E-03
DAV:   5    -0.227504509172E+03   -0.84909E-05   -0.94269E-05 32040   0.612E-02    0.100E-02
DAV:   6    -0.227504507496E+03    0.16765E-05   -0.28789E-05 24500   0.512E-02    0.630E-03
DAV:   7    -0.227504506755E+03    0.74053E-06   -0.54535E-06 22440   0.212E-02
   4 F= -.22750451E+03 E0= -.22750388E+03  d E =-.124976E-02
 Finite differences progress:
  Degree of freedom:   2/  3
  Displacement:        1/  2
  Total:               3/  6
 bond charge predicted
       N       E                     dE             d eps       ncg     rms          rms(c)
DAV:   1    -0.227504574789E+03   -0.67294E-04   -0.48005E-01 22180   0.637E-01    0.178E-01
DAV:   2    -0.227504673277E+03   -0.98488E-04   -0.67071E-03 24100   0.351E-01    0.103E-01
DAV:   3    -0.227504645181E+03    0.28097E-04   -0.14951E-03 24480   0.530E-01    0.104E-01
DAV:   4    -0.227504462929E+03    0.18225E-03   -0.61815E-04 24980   0.282E-01    0.122E-02
DAV:   5    -0.227504481888E+03   -0.18958E-04   -0.22429E-04 32540   0.116E-01    0.156E-02
DAV:   6    -0.227504474915E+03    0.69725E-05   -0.80315E-05 27560   0.842E-02    0.856E-03
DAV:   7    -0.227504473899E+03    0.10157E-05   -0.11881E-05 23020   0.262E-02    0.499E-03
DAV:   8    -0.227504473698E+03    0.20133E-06   -0.55517E-06 23160   0.145E-02
   5 F= -.22750447E+03 E0= -.22750385E+03  d E =-.124979E-02
 Finite differences progress:
  Degree of freedom:   2/  3
  Displacement:        2/  2
  Total:               4/  6
 bond charge predicted
       N       E                     dE             d eps       ncg     rms          rms(c)
DAV:   1    -0.227504141777E+03    0.33212E-03   -0.24066E-01 22020   0.437E-01    0.111E-01
DAV:   2    -0.227504236695E+03   -0.94917E-04   -0.30752E-03 23500   0.214E-01    0.667E-02
DAV:   3    -0.227504236810E+03   -0.11564E-06   -0.61760E-04 24440   0.338E-01    0.669E-02
DAV:   4    -0.227504201210E+03    0.35601E-04   -0.57580E-04 24940   0.283E-01    0.331E-02
DAV:   5    -0.227504153702E+03    0.47507E-04   -0.30251E-04 30300   0.184E-01    0.577E-03
DAV:   6    -0.227504156151E+03   -0.24488E-05   -0.43242E-05 23840   0.340E-02    0.688E-03
DAV:   7    -0.227504155885E+03    0.26643E-06   -0.79135E-06 23040   0.209E-02
   6 F= -.22750416E+03 E0= -.22750357E+03  d E =-.116940E-02
 Finite differences progress:
  Degree of freedom:   3/  3
  Displacement:        1/  2
  Total:               5/  6
 bond charge predicted
       N       E                     dE             d eps       ncg     rms          rms(c)
DAV:   1    -0.227504076306E+03    0.79845E-04   -0.48567E-01 22060   0.608E-01    0.132E-01
DAV:   2    -0.227504351109E+03   -0.27480E-03   -0.50226E-03 23700   0.180E-01    0.808E-02
DAV:   3    -0.227504426628E+03   -0.75519E-04   -0.98916E-04 24060   0.392E-01    0.814E-02
DAV:   4    -0.227504363254E+03    0.63374E-04   -0.11639E-03 24780   0.407E-01    0.413E-02
DAV:   5    -0.227504286122E+03    0.77132E-04   -0.38581E-04 29500   0.218E-01    0.601E-03
DAV:   6    -0.227504290286E+03   -0.41636E-05   -0.62406E-05 23000   0.350E-02    0.760E-03
DAV:   7    -0.227504289844E+03    0.44181E-06   -0.95762E-06 23580   0.237E-02
   7 F= -.22750429E+03 E0= -.22750363E+03  d E =-.131421E-02
 Finite differences progress:
  Degree of freedom:   3/  3
  Displacement:        2/  2
  Total:               6/  6
 Finite differences POTIM=  2.000000000000000E-002
 writing wavefunctions
