 running on   10 total cores
 distrk:  each k-point on   10 cores,    1 groups
 distr:  one band on    1 cores,   10 groups
 using from now: INCAR     
 vasp.5.4.1 24Jun15 (build Oct 26 2018 17:15:27) complex                        
  
 POSCAR found type information on POSCAR  Pt O 
 POSCAR found :  2 types and      13 ions
 scaLAPACK will be used

 ----------------------------------------------------------------------------- 
|                                                                             |
|           W    W    AA    RRRRR   N    N  II  N    N   GGGG   !!!           |
|           W    W   A  A   R    R  NN   N  II  NN   N  G    G  !!!           |
|           W    W  A    A  R    R  N N  N  II  N N  N  G       !!!           |
|           W WW W  AAAAAA  RRRRR   N  N N  II  N  N N  G  GGG   !            |
|           WW  WW  A    A  R   R   N   NN  II  N   NN  G    G                |
|           W    W  A    A  R    R  N    N  II  N    N   GGGG   !!!           |
|                                                                             |
|      For optimal performance we recommend to set                            |
|        NCORE= 4 - approx SQRT( number of cores)                             |
|      NCORE specifies how many cores store one orbital (NPAR=cpu/NCORE).     |
|      This setting can  greatly improve the performance of VASP for DFT.     |
|      The default, NPAR=number of cores might be grossly inefficient         |
|      on modern multi-core architectures or massively parallel machines.     |
|      Do your own testing !!!!                                               |
|      Unfortunately you need to use the default for GW and RPA calculations. |
|      (for HF NCORE is supported but not extensively tested yet)             |
|                                                                             |
 ----------------------------------------------------------------------------- 

 LDA part: xc-table for Ceperly-Alder, standard interpolation
 POSCAR, INCAR and KPOINTS ok, starting setup
 WARNING: small aliasing (wrap around) errors must be expected
 FFT: planning ...
 WAVECAR not read
 WARNING: random wavefunctions but no delay for mixing, default for NELMDL
 entering main loop
       N       E                     dE             d eps       ncg     rms          rms(c)
DAV:   1     0.131855080128E+04    0.13186E+04   -0.51010E+04  6560   0.133E+03
DAV:   2     0.742536603676E+02   -0.12443E+04   -0.11371E+04  6560   0.456E+02
DAV:   3    -0.719019467387E+02   -0.14616E+03   -0.13531E+03  8810   0.130E+02
DAV:   4    -0.808965881821E+02   -0.89946E+01   -0.85788E+01  8490   0.397E+01
DAV:   5    -0.810771612064E+02   -0.18057E+00   -0.18009E+00  8580   0.483E+00    0.175E+01
RMM:   6    -0.107617512885E+03   -0.26540E+02   -0.20643E+01  6603   0.220E+01    0.348E+01
RMM:   7    -0.109222615297E+03   -0.16051E+01   -0.27045E+01  7035   0.158E+01    0.309E+01
RMM:   8    -0.783904612757E+02    0.30832E+02   -0.84583E+00  6784   0.103E+01    0.153E+01
RMM:   9    -0.741441058264E+02    0.42464E+01   -0.31523E+00  6696   0.646E+00    0.733E+00
RMM:  10    -0.736390656884E+02    0.50504E+00   -0.64685E-01  6689   0.303E+00    0.564E+00
RMM:  11    -0.733858643520E+02    0.25320E+00   -0.89498E-02  6680   0.123E+00    0.362E+00
RMM:  12    -0.733133631425E+02    0.72501E-01   -0.16235E-01  6848   0.146E+00    0.257E+00
RMM:  13    -0.732524260994E+02    0.60937E-01   -0.11355E-01  6710   0.125E+00    0.202E+00
RMM:  14    -0.732246867292E+02    0.27739E-01   -0.42747E-02  6696   0.965E-01    0.458E-01
RMM:  15    -0.732235750775E+02    0.11117E-02   -0.56724E-03  6673   0.324E-01    0.549E-01
RMM:  16    -0.732214534738E+02    0.21216E-02   -0.27221E-03  6673   0.208E-01    0.272E-01
RMM:  17    -0.732212303144E+02    0.22316E-03   -0.25005E-03  6656   0.219E-01    0.120E-01
RMM:  18    -0.732211690556E+02    0.61259E-04   -0.33930E-04  6581   0.782E-02    0.482E-02
RMM:  19    -0.732213040557E+02   -0.13500E-03   -0.80968E-05  5855   0.385E-02    0.775E-02
RMM:  20    -0.732216015848E+02   -0.29753E-03   -0.92232E-05  5545   0.336E-02    0.112E-01
RMM:  21    -0.732218724609E+02   -0.27088E-03   -0.22520E-04  6219   0.456E-02    0.125E-01
RMM:  22    -0.732218669100E+02    0.55509E-05   -0.54426E-05  5027   0.220E-02
   1 F= -.73221867E+02 E0= -.73143008E+02  d E =-.732219E+02
 curvature:   0.00 expect dE= 0.000E+00 dE for cont linesearch  0.000E+00
 trial: gam= 0.00000 g(F)=  0.158E+00 g(S)=  0.000E+00 ort = 0.000E+00 (trialstep = 0.100E+01)
 search vector abs. value=  0.158E+00
 bond charge predicted
       N       E                     dE             d eps       ncg     rms          rms(c)
DAV:   1    -0.733623122224E+02   -0.14044E+00   -0.82970E+00  7030   0.102E+01    0.479E-01
RMM:   2    -0.736833873461E+02   -0.32108E+00   -0.21257E-01  6645   0.155E+00    0.534E+00
RMM:   3    -0.733858866408E+02    0.29750E+00   -0.30218E-02  6731   0.648E-01    0.588E-01
RMM:   4    -0.733809391092E+02    0.49475E-02   -0.68852E-03  6834   0.338E-01    0.462E-01
RMM:   5    -0.733786831746E+02    0.22559E-02   -0.14358E-03  6640   0.143E-01    0.366E-01
RMM:   6    -0.733782002000E+02    0.48297E-03   -0.11552E-03  6610   0.130E-01    0.279E-01
RMM:   7    -0.733774303509E+02    0.76985E-03   -0.11987E-03  6675   0.123E-01    0.114E-01
RMM:   8    -0.733773482844E+02    0.82066E-04   -0.20111E-04  6596   0.632E-02    0.837E-02
RMM:   9    -0.733772972964E+02    0.50988E-04   -0.25489E-05  4107   0.242E-02    0.492E-02
RMM:  10    -0.733772879977E+02    0.92987E-05   -0.25280E-05  3916   0.266E-02
   2 F= -.73377288E+02 E0= -.73299546E+02  d E =-.155421E+00
 ZBRENT: can't locate minimum, use default step
 trial-energy change:   -0.155421  1 .order   -0.155041   -0.157575   -0.152508
 step:   4.0000(harm= 31.0956)  dis= 0.03995  next Energy=   -75.671812 (dE=-0.245E+01)
 bond charge predicted
       N       E                     dE             d eps       ncg     rms          rms(c)
DAV:   1    -0.736469846192E+02   -0.26969E+00   -0.74812E+01  6560   0.310E+01    0.155E+00
RMM:   2    -0.760091937838E+02   -0.23622E+01   -0.22710E+00  6656   0.570E+00    0.119E+01
RMM:   3    -0.739213303169E+02    0.20879E+01   -0.28319E-01  6864   0.195E+00    0.255E+00
RMM:   4    -0.738097517224E+02    0.11158E+00   -0.67410E-02  6703   0.106E+00    0.841E-01
RMM:   5    -0.738126104305E+02   -0.28587E-02   -0.12815E-02  6647   0.425E-01    0.135E+00
RMM:   6    -0.738006810320E+02    0.11929E-01   -0.12162E-02  6616   0.458E-01    0.721E-01
RMM:   7    -0.738000418191E+02    0.63921E-03   -0.15697E-02  6763   0.432E-01    0.710E-01
RMM:   8    -0.737950850778E+02    0.49567E-02   -0.24361E-03  6688   0.200E-01    0.375E-01
RMM:   9    -0.737938246950E+02    0.12604E-02   -0.41266E-04  6622   0.854E-02    0.199E-01
RMM:  10    -0.737931847244E+02    0.63997E-03   -0.85749E-04  6584   0.118E-01    0.755E-02
RMM:  11    -0.737931217143E+02    0.63010E-04   -0.89452E-05  6330   0.391E-02    0.353E-02
RMM:  12    -0.737931235899E+02   -0.18756E-05   -0.28023E-05  4328   0.188E-02
   3 F= -.73793124E+02 E0= -.73719495E+02  d E =-.571257E+00
 curvature:  -2.95 expect dE=-0.297E+00 dE for cont linesearch -0.287E+00
 ZBRENT: increasing intervall
 opt :  10.0000  next Energy=   -74.365194 (dE=-0.114E+01)
 bond charge predicted
       N       E                     dE             d eps       ncg     rms          rms(c)
DAV:   1    -0.734863212530E+02    0.30680E+00   -0.30004E+02  6630   0.625E+01    0.340E+00
RMM:   2    -0.817090741366E+02   -0.82228E+01   -0.12200E+01  6647   0.135E+01    0.174E+01
RMM:   3    -0.749460390323E+02    0.67630E+01   -0.14494E+00  6860   0.424E+00    0.620E+00
RMM:   4    -0.742898992033E+02    0.65614E+00   -0.33143E-01  6614   0.245E+00    0.157E+00
RMM:   5    -0.743224699304E+02   -0.32571E-01   -0.63179E-02  6813   0.906E-01    0.281E+00
RMM:   6    -0.742515441739E+02    0.70926E-01   -0.58770E-02  6624   0.108E+00    0.129E+00
RMM:   7    -0.742768731200E+02   -0.25329E-01   -0.86924E-02  6624   0.112E+00    0.173E+00
RMM:   8    -0.742489164145E+02    0.27957E-01   -0.23035E-02  6730   0.585E-01    0.124E+00
RMM:   9    -0.742285475499E+02    0.20369E-01   -0.31547E-03  6611   0.231E-01    0.414E-01
RMM:  10    -0.742255497761E+02    0.29978E-02   -0.37948E-03  6606   0.260E-01    0.115E-01
RMM:  11    -0.742252929087E+02    0.25687E-03   -0.98181E-04  6714   0.129E-01    0.139E-01
RMM:  12    -0.742247833696E+02    0.50954E-03   -0.18719E-04  6764   0.429E-02    0.293E-02
RMM:  13    -0.742245069990E+02    0.27637E-03   -0.81108E-05  5633   0.284E-02    0.373E-02
RMM:  14    -0.742244419293E+02    0.65070E-04   -0.25143E-05  4263   0.196E-02    0.257E-02
RMM:  15    -0.742244477154E+02   -0.57861E-05   -0.80198E-06  3762   0.150E-02
   4 F= -.74224448E+02 E0= -.74162623E+02  d E =-.100258E+01
 curvature:  -5.87 expect dE=-0.212E+00 dE for cont linesearch -0.437E-04
 trial: gam= 0.22190 g(F)=  0.360E-01 g(S)=  0.000E+00 ort = 0.108E-02 (trialstep = 0.280E+01)
 search vector abs. value=  0.443E-01
 bond charge predicted
       N       E                     dE             d eps       ncg     rms          rms(c)
DAV:   1    -0.742771566165E+02   -0.52715E-01   -0.18665E+01  6700   0.148E+01    0.660E-01
RMM:   2    -0.743125803015E+02   -0.35424E-01   -0.38141E-01  6606   0.269E+00    0.355E-01
RMM:   3    -0.743133202236E+02   -0.73992E-03   -0.36545E-02  8717   0.712E-01    0.330E-01
RMM:   4    -0.743171368281E+02   -0.38166E-02   -0.35952E-03  6919   0.207E-01    0.630E-01
RMM:   5    -0.743120317620E+02    0.51051E-02   -0.71639E-04  6866   0.971E-02    0.194E-01
RMM:   6    -0.743128482379E+02   -0.81648E-03   -0.29700E-03  6621   0.194E-01    0.296E-01
RMM:   7    -0.743116815247E+02    0.11667E-02   -0.12307E-03  6714   0.128E-01    0.131E-01
RMM:   8    -0.743114339525E+02    0.24757E-03   -0.42406E-04  6527   0.834E-02    0.558E-02
RMM:   9    -0.743114043081E+02    0.29644E-04   -0.78790E-05  6240   0.340E-02    0.289E-02
RMM:  10    -0.743114183424E+02   -0.14034E-04   -0.28976E-05  4069   0.245E-02    0.266E-02
RMM:  11    -0.743114464250E+02   -0.28083E-04   -0.35260E-05  4433   0.255E-02    0.546E-03
RMM:  12    -0.743114758975E+02   -0.29472E-04   -0.75127E-06  3685   0.154E-02    0.844E-03
RMM:  13    -0.743114991429E+02   -0.23245E-04   -0.38273E-06  3686   0.923E-03    0.102E-02
RMM:  14    -0.743115154504E+02   -0.16308E-04   -0.26069E-06  3677   0.689E-03    0.832E-03
RMM:  15    -0.743115237073E+02   -0.82569E-05   -0.15159E-06  3203   0.500E-03
   5 F= -.74311524E+02 E0= -.74251012E+02  d E =-.870760E-01
 trial-energy change:   -0.087076  1 .order   -0.086597   -0.101610   -0.071585
 step:   8.0380(harm=  9.4758)  dis= 0.05568  next Energy=   -74.381614 (dE=-0.157E+00)
 bond charge predicted
       N       E                     dE             d eps       ncg     rms          rms(c)
DAV:   1    -0.742630223034E+02    0.48493E-01   -0.65320E+01  6560   0.277E+01    0.129E+00
RMM:   2    -0.744383769455E+02   -0.17535E+00   -0.14929E+00  6596   0.582E+00    0.187E+00
RMM:   3    -0.746039406716E+02   -0.16556E+00   -0.21425E-01  8359   0.157E+00    0.334E+00
RMM:   4    -0.744093564761E+02    0.19458E+00   -0.46937E-02  6737   0.787E-01    0.929E-01
RMM:   5    -0.744021421281E+02    0.72143E-02   -0.99390E-03  6782   0.387E-01    0.725E-01
RMM:   6    -0.743974517950E+02    0.46903E-02   -0.65268E-03  6795   0.286E-01    0.425E-01
RMM:   7    -0.743972094286E+02    0.24237E-03   -0.92518E-03  6634   0.363E-01    0.376E-01
RMM:   8    -0.743953654199E+02    0.18440E-02   -0.29447E-03  6624   0.217E-01    0.218E-01
RMM:   9    -0.743946811850E+02    0.68423E-03   -0.63942E-04  6579   0.107E-01    0.834E-02
RMM:  10    -0.743945692563E+02    0.11193E-03   -0.18218E-04  6547   0.553E-02    0.320E-02
RMM:  11    -0.743945706665E+02   -0.14103E-05   -0.12744E-04  6441   0.406E-02    0.985E-03
RMM:  12    -0.743946067450E+02   -0.36078E-04   -0.16275E-05  3830   0.197E-02    0.150E-02
RMM:  13    -0.743946182348E+02   -0.11490E-04   -0.59987E-06  3667   0.149E-02    0.757E-03
RMM:  14    -0.743946425895E+02   -0.24355E-04   -0.48797E-06  3715   0.819E-03    0.179E-02
RMM:  15    -0.743946444363E+02   -0.18468E-05   -0.14651E-06  3611   0.667E-03
   6 F= -.74394644E+02 E0= -.74336394E+02  d E =-.170197E+00
 curvature:  -5.51 expect dE=-0.160E-01 dE for cont linesearch -0.509E-02
 ZBRENT: extrapolating
 opt :   9.7858  next Energy=   -74.400234 (dE=-0.176E+00)
 bond charge predicted
       N       E                     dE             d eps       ncg     rms          rms(c)
DAV:   1    -0.743884784850E+02    0.61641E-02   -0.72632E+00  6580   0.917E+00    0.430E-01
RMM:   2    -0.744034429650E+02   -0.14964E-01   -0.14555E-01  6602   0.159E+00    0.414E-01
RMM:   3    -0.744365352895E+02   -0.33092E-01   -0.18757E-02  8005   0.536E-01    0.148E+00
RMM:   4    -0.744035131961E+02    0.33022E-01   -0.59397E-03  6805   0.246E-01    0.381E-01
RMM:   5    -0.744016433620E+02    0.18698E-02   -0.12583E-03  6625   0.138E-01    0.212E-01
RMM:   6    -0.744011098235E+02    0.53354E-03   -0.62318E-04  6853   0.840E-02    0.113E-01
RMM:   7    -0.744013112372E+02   -0.20141E-03   -0.91402E-04  6641   0.108E-01    0.145E-01
RMM:   8    -0.744009750424E+02    0.33619E-03   -0.27261E-04  6611   0.628E-02    0.581E-02
RMM:   9    -0.744009305727E+02    0.44470E-04   -0.45719E-05  5055   0.284E-02    0.198E-02
RMM:  10    -0.744009295839E+02    0.98877E-06   -0.17101E-05  3708   0.219E-02
   7 F= -.74400930E+02 E0= -.74343271E+02  d E =-.176482E+00
 curvature:  -6.05 expect dE=-0.123E-01 dE for cont linesearch -0.648E-04
 trial: gam=-0.00200 g(F)=  0.203E-02 g(S)=  0.000E+00 ort = 0.689E-03 (trialstep = 0.420E+01)
 search vector abs. value=  0.203E-02
 bond charge predicted
       N       E                     dE             d eps       ncg     rms          rms(c)
DAV:   1    -0.744055278881E+02   -0.45973E-02   -0.19998E+00  6580   0.422E+00    0.172E-01
RMM:   2    -0.744221198260E+02   -0.16592E-01   -0.29363E-02  6589   0.761E-01    0.978E-01
RMM:   3    -0.744092945673E+02    0.12825E-01   -0.51532E-03  8297   0.263E-01    0.265E-01
RMM:   4    -0.744083902062E+02    0.90436E-03   -0.83503E-04  6889   0.112E-01    0.140E-01
RMM:   5    -0.744080946917E+02    0.29551E-03   -0.22434E-04  6585   0.605E-02    0.867E-02
RMM:   6    -0.744079852231E+02    0.10947E-03   -0.16116E-04  6507   0.431E-02    0.572E-02
RMM:   7    -0.744079614157E+02    0.23807E-04   -0.35555E-04  6776   0.662E-02    0.408E-02
RMM:   8    -0.744079415251E+02    0.19891E-04   -0.75324E-05  6280   0.335E-02    0.184E-02
RMM:   9    -0.744079388787E+02    0.26465E-05   -0.94571E-06  3583   0.155E-02
   8 F= -.74407939E+02 E0= -.74349649E+02  d E =-.700929E-02
 trial-energy change:   -0.007009  1 .order   -0.007052   -0.008508   -0.005597
 step:  16.6140(harm= 12.2673)  dis= 0.03077  next Energy=   -74.415107 (dE=-0.142E-01)
 bond charge predicted
       N       E                     dE             d eps       ncg     rms          rms(c)
DAV:   1    -0.743885655392E+02    0.19376E-01   -0.17469E+01  6580   0.125E+01    0.551E-01
RMM:   2    -0.745488368478E+02   -0.16027E+00   -0.29457E-01  6591   0.277E+00    0.293E+00
RMM:   3    -0.744265522527E+02    0.12228E+00   -0.62240E-02  8862   0.801E-01    0.855E-01
RMM:   4    -0.744183476764E+02    0.82046E-02   -0.83975E-03  6681   0.385E-01    0.457E-01
RMM:   5    -0.744150609917E+02    0.32867E-02   -0.21942E-03  6618   0.195E-01    0.274E-01
RMM:   6    -0.744140471179E+02    0.10139E-02   -0.12606E-03  6617   0.128E-01    0.190E-01
RMM:   7    -0.744140078171E+02    0.39301E-04   -0.35826E-03  6666   0.226E-01    0.190E-01
RMM:   8    -0.744134726244E+02    0.53519E-03   -0.12433E-03  7133   0.130E-01    0.570E-02
RMM:   9    -0.744134459863E+02    0.26638E-04   -0.15531E-04  6783   0.531E-02    0.460E-02
RMM:  10    -0.744133961921E+02    0.49794E-04   -0.48862E-05  5376   0.263E-02    0.203E-02
RMM:  11    -0.744133882369E+02    0.79552E-05   -0.61538E-05  6189   0.276E-02
   9 F= -.74413388E+02 E0= -.74353319E+02  d E =-.124587E-01
 curvature:  -4.35 expect dE=-0.152E-01 dE for cont linesearch -0.555E-03
 ZBRENT: interpolating
 opt :  13.1874  next Energy=   -74.414259 (dE=-0.133E-01)
 bond charge predicted
       N       E                     dE             d eps       ncg     rms          rms(c)
DAV:   1    -0.744124122234E+02    0.98397E-03   -0.13314E+00  6580   0.344E+00    0.146E-01
RMM:   2    -0.744283575563E+02   -0.15945E-01   -0.20527E-02  6589   0.642E-01    0.999E-01
RMM:   3    -0.744149248922E+02    0.13433E-01   -0.38364E-03  8218   0.213E-01    0.203E-01
RMM:   4    -0.744142699730E+02    0.65492E-03   -0.53210E-04  6771   0.938E-02    0.102E-01
RMM:   5    -0.744141455101E+02    0.12446E-03   -0.13920E-04  6560   0.489E-02    0.771E-02
RMM:   6    -0.744140662415E+02    0.79269E-04   -0.92477E-05  6375   0.348E-02    0.500E-02
RMM:   7    -0.744140398052E+02    0.26436E-04   -0.24947E-04  6748   0.539E-02    0.304E-02
RMM:   8    -0.744140317287E+02    0.80765E-05   -0.36297E-05  4499   0.265E-02
  10 F= -.74414032E+02 E0= -.74354481E+02  d E =-.131021E-01
 curvature:  -6.83 expect dE=-0.143E-01 dE for cont linesearch -0.289E-06
 trial: gam= 1.03843 g(F)=  0.210E-02 g(S)=  0.000E+00 ort =-0.926E-05 (trialstep = 0.285E+01)
 search vector abs. value=  0.426E-02
 bond charge predicted
       N       E                     dE             d eps       ncg     rms          rms(c)
DAV:   1    -0.744159988980E+02   -0.19591E-02   -0.18748E+00  6560   0.470E+00    0.193E-01
RMM:   2    -0.744199132884E+02   -0.39144E-02   -0.37671E-02  6593   0.808E-01    0.185E-01
RMM:   3    -0.744263937115E+02   -0.64804E-02   -0.35978E-03  7645   0.258E-01    0.675E-01
RMM:   4    -0.744201245724E+02    0.62691E-02   -0.11639E-03  6851   0.115E-01    0.205E-01
RMM:   5    -0.744194870989E+02    0.63747E-03   -0.26407E-04  6585   0.665E-02    0.936E-02
RMM:   6    -0.744193884013E+02    0.98698E-04   -0.11773E-04  6551   0.396E-02    0.605E-02
RMM:   7    -0.744193670744E+02    0.21327E-04   -0.31415E-04  6649   0.619E-02    0.543E-02
RMM:   8    -0.744193195351E+02    0.47539E-04   -0.72456E-05  6119   0.306E-02    0.187E-02
RMM:   9    -0.744193132286E+02    0.63065E-05   -0.91780E-06  3557   0.155E-02
  11 F= -.74419313E+02 E0= -.74359810E+02  d E =-.528150E-02
 trial-energy change:   -0.005281  1 .order   -0.005216   -0.005952   -0.004481
 step:   7.8519(harm= 11.5215)  dis= 0.01484  next Energy=   -74.423604 (dE=-0.957E-02)
 bond charge predicted
       N       E                     dE             d eps       ncg     rms          rms(c)
DAV:   1    -0.744137728419E+02    0.55467E-02   -0.57851E+00  6560   0.825E+00    0.350E-01
RMM:   2    -0.744252852427E+02   -0.11512E-01   -0.11920E-01  6593   0.149E+00    0.214E-01
RMM:   3    -0.744282092055E+02   -0.29240E-02   -0.10609E-02  7915   0.454E-01    0.486E-01
RMM:   4    -0.744288871496E+02   -0.67794E-03   -0.19786E-03  7307   0.144E-01    0.531E-01
RMM:   5    -0.744249338989E+02    0.39533E-02   -0.73928E-04  6674   0.113E-01    0.163E-01
RMM:   6    -0.744246831644E+02    0.25073E-03   -0.34148E-04  6731   0.650E-02    0.117E-01
RMM:   7    -0.744245813468E+02    0.10182E-03   -0.10081E-03  6679   0.108E-01    0.984E-02
RMM:   8    -0.744244332058E+02    0.14814E-03   -0.28041E-04  6719   0.617E-02    0.364E-02
RMM:   9    -0.744244096785E+02    0.23527E-04   -0.30701E-05  4270   0.250E-02    0.192E-02
RMM:  10    -0.744244051783E+02    0.45001E-05   -0.11318E-05  3572   0.206E-02
  12 F= -.74424405E+02 E0= -.74365068E+02  d E =-.103734E-01
 curvature:  -9.65 expect dE=-0.642E-02 dE for cont linesearch -0.486E-03
 ZBRENT: extrapolating
 opt :   9.9411  next Energy=   -74.424889 (dE=-0.109E-01)
 bond charge predicted
       N       E                     dE             d eps       ncg     rms          rms(c)
DAV:   1    -0.744229126098E+02    0.14971E-02   -0.10073E+00  6560   0.344E+00    0.145E-01
RMM:   2    -0.744249505607E+02   -0.20380E-02   -0.20540E-02  6597   0.597E-01    0.109E-01
RMM:   3    -0.744274957815E+02   -0.25452E-02   -0.18663E-03  7370   0.196E-01    0.423E-01
RMM:   4    -0.744252467952E+02    0.22490E-02   -0.51624E-04  6950   0.743E-02    0.169E-01
RMM:   5    -0.744248019989E+02    0.44480E-03   -0.15494E-04  6557   0.533E-02    0.675E-02
RMM:   6    -0.744247605062E+02    0.41493E-04   -0.62115E-05  5883   0.296E-02    0.468E-02
RMM:   7    -0.744247695244E+02   -0.90182E-05   -0.15949E-04  6662   0.470E-02    0.484E-02
RMM:   8    -0.744247332108E+02    0.36314E-04   -0.55859E-05  5691   0.271E-02    0.140E-02
RMM:   9    -0.744247307493E+02    0.24614E-05   -0.71323E-06  3513   0.148E-02
  13 F= -.74424731E+02 E0= -.74365472E+02  d E =-.106990E-01
 curvature:  -9.61 expect dE=-0.922E-02 dE for cont linesearch -0.296E-04
 trial: gam= 0.52934 g(F)=  0.959E-03 g(S)=  0.000E+00 ort =-0.115E-03 (trialstep = 0.427E+01)
 search vector abs. value=  0.203E-02
 bond charge predicted
       N       E                     dE             d eps       ncg     rms          rms(c)
DAV:   1    -0.744243357809E+02    0.39743E-03   -0.19279E+00  6560   0.481E+00    0.246E-01
RMM:   2    -0.744283720507E+02   -0.40363E-02   -0.41424E-02  6603   0.809E-01    0.180E-01
RMM:   3    -0.744391775159E+02   -0.10805E-01   -0.50615E-03  7743   0.279E-01    0.853E-01
RMM:   4    -0.744280657272E+02    0.11112E-01   -0.13330E-03  6795   0.126E-01    0.972E-02
RMM:   5    -0.744279045888E+02    0.16114E-03   -0.22409E-04  6701   0.603E-02    0.660E-02
RMM:   6    -0.744279994950E+02   -0.94906E-04   -0.26298E-04  6707   0.592E-02    0.102E-01
RMM:   7    -0.744278880457E+02    0.11145E-03   -0.15810E-04  6621   0.459E-02    0.487E-02
RMM:   8    -0.744278475570E+02    0.40489E-04   -0.38522E-05  4696   0.268E-02    0.153E-02
RMM:   9    -0.744278446086E+02    0.29484E-05   -0.91549E-06  3553   0.183E-02
  14 F= -.74427845E+02 E0= -.74368674E+02  d E =-.311386E-02
 trial-energy change:   -0.003114  1 .order   -0.003256   -0.003832   -0.002681
 step:  14.2006(harm= 14.2006)  dis= 0.01481  next Energy=   -74.431108 (dE=-0.638E-02)
 bond charge predicted
       N       E                     dE             d eps       ncg     rms          rms(c)
DAV:   1    -0.744121089346E+02    0.15739E-01   -0.10470E+01  6560   0.112E+01    0.563E-01
RMM:   2    -0.744332701229E+02   -0.21161E-01   -0.22650E-01  6603   0.197E+00    0.341E-01
RMM:   3    -0.744331009722E+02    0.16915E-03   -0.20698E-02  8574   0.549E-01    0.313E-01
RMM:   4    -0.744402650515E+02   -0.71641E-02   -0.29375E-03  7027   0.194E-01    0.721E-01
RMM:   5    -0.744331043835E+02    0.71607E-02   -0.13708E-03  6770   0.130E-01    0.328E-01
RMM:   6    -0.744317673159E+02    0.13371E-02   -0.76348E-04  6695   0.942E-02    0.135E-01
RMM:   7    -0.744317348230E+02    0.32493E-04   -0.12060E-03  6595   0.126E-01    0.122E-01
RMM:   8    -0.744314863528E+02    0.24847E-03   -0.32153E-04  6632   0.675E-02    0.369E-02
RMM:   9    -0.744314674308E+02    0.18922E-04   -0.44646E-05  5028   0.305E-02    0.229E-02
RMM:  10    -0.744314574971E+02    0.99337E-05   -0.14196E-05  3593   0.217E-02
  15 F= -.74431457E+02 E0= -.74372386E+02  d E =-.672675E-02
 curvature: -16.07 expect dE=-0.660E-02 dE for cont linesearch -0.335E-03
 ZBRENT: extrapolating
 opt :  19.0384  next Energy=   -74.431955 (dE=-0.722E-02)
 bond charge predicted
       N       E                     dE             d eps       ncg     rms          rms(c)
DAV:   1    -0.744273558177E+02    0.41116E-02   -0.24813E+00  6560   0.546E+00    0.273E-01
RMM:   2    -0.744324065618E+02   -0.50507E-02   -0.53933E-02  6602   0.929E-01    0.168E-01
RMM:   3    -0.744335129730E+02   -0.11064E-02   -0.45034E-03  8236   0.277E-01    0.314E-01
RMM:   4    -0.744330622826E+02    0.45069E-03   -0.78199E-04  7310   0.899E-02    0.262E-01
RMM:   5    -0.744321490955E+02    0.91319E-03   -0.35171E-04  6641   0.780E-02    0.121E-01
RMM:   6    -0.744319757485E+02    0.17335E-03   -0.17664E-04  6618   0.466E-02    0.662E-02
RMM:   7    -0.744319712597E+02    0.44887E-05   -0.30952E-04  6593   0.633E-02    0.539E-02
RMM:   8    -0.744319257892E+02    0.45471E-04   -0.65832E-05  6068   0.310E-02    0.212E-02
RMM:   9    -0.744319192575E+02    0.65318E-05   -0.87561E-06  3546   0.155E-02
  16 F= -.74431919E+02 E0= -.74372875E+02  d E =-.718851E-02
 curvature: -23.89 expect dE=-0.109E-01 dE for cont linesearch -0.107E-04
 trial: gam= 0.32746 g(F)=  0.457E-03 g(S)=  0.000E+00 ort =-0.301E-04 (trialstep = 0.722E+01)
 search vector abs. value=  0.655E-03
 bond charge predicted
       N       E                     dE             d eps       ncg     rms          rms(c)
DAV:   1    -0.744306467777E+02    0.12790E-02   -0.19072E+00  6560   0.434E+00    0.175E-01
RMM:   2    -0.744339441053E+02   -0.32973E-02   -0.32649E-02  6595   0.775E-01    0.187E-01
RMM:   3    -0.744393221950E+02   -0.53781E-02   -0.46216E-03  8456   0.267E-01    0.597E-01
RMM:   4    -0.744338581857E+02    0.54640E-02   -0.94073E-04  6870   0.104E-01    0.127E-01
RMM:   5    -0.744336358408E+02    0.22234E-03   -0.24468E-04  6629   0.627E-02    0.868E-02
RMM:   6    -0.744335399647E+02    0.95876E-04   -0.10034E-04  6529   0.362E-02    0.553E-02
RMM:   7    -0.744335620007E+02   -0.22036E-04   -0.31595E-04  6647   0.625E-02    0.648E-02
RMM:   8    -0.744334979520E+02    0.64049E-04   -0.13812E-04  6624   0.413E-02    0.190E-02
RMM:   9    -0.744334913407E+02    0.66113E-05   -0.13954E-05  3594   0.190E-02
  17 F= -.74433491E+02 E0= -.74374419E+02  d E =-.157208E-02
 trial-energy change:   -0.001572  1 .order   -0.001710   -0.003229   -0.000191
 step:   7.8648(harm=  7.6740)  dis= 0.00620  next Energy=   -74.433500 (dE=-0.158E-02)
 bond charge predicted
       N       E                     dE             d eps       ncg     rms          rms(c)
DAV:   1    -0.744334555291E+02    0.42423E-04   -0.14855E-02  7230   0.384E-01    0.193E-02
RMM:   2    -0.744334941781E+02   -0.38649E-04   -0.30774E-04  6551   0.782E-02    0.314E-02
RMM:   3    -0.744335364136E+02   -0.42235E-04   -0.42483E-05  4914   0.261E-02    0.580E-02
RMM:   4    -0.744334856580E+02    0.50756E-04   -0.13469E-05  3604   0.208E-02    0.147E-02
RMM:   5    -0.744334828192E+02    0.28388E-05   -0.47943E-06  3400   0.133E-02
  18 F= -.74433483E+02 E0= -.74374423E+02  d E =-.156356E-02
 curvature:  -4.63 expect dE=-0.614E-03 dE for cont linesearch -0.172E-04
 trial: gam= 0.36541 g(F)=  0.133E-03 g(S)=  0.000E+00 ort =-0.494E-04 (trialstep = 0.735E+01)
 search vector abs. value=  0.184E-03
 bond charge predicted
       N       E                     dE             d eps       ncg     rms          rms(c)
DAV:   1    -0.744330900278E+02    0.39563E-03   -0.55825E-01  6620   0.245E+00    0.962E-02
RMM:   2    -0.744355883807E+02   -0.24984E-02   -0.11156E-02  6589   0.439E-01    0.308E-01
RMM:   3    -0.744343845701E+02    0.12038E-02   -0.10172E-03  8144   0.132E-01    0.132E-01
RMM:   4    -0.744340961880E+02    0.28838E-03   -0.19891E-04  6564   0.602E-02    0.536E-02
RMM:   5    -0.744340537762E+02    0.42412E-04   -0.33873E-05  4484   0.243E-02    0.370E-02
RMM:   6    -0.744340921830E+02   -0.38407E-04   -0.11105E-04  6588   0.412E-02    0.598E-02
RMM:   7    -0.744340344338E+02    0.57749E-04   -0.72220E-05  6120   0.297E-02    0.231E-02
RMM:   8    -0.744340268372E+02    0.75965E-05   -0.98531E-06  3561   0.173E-02
  19 F= -.74434027E+02 E0= -.74375243E+02  d E =-.544018E-03
 trial-energy change:   -0.000544  1 .order   -0.000537   -0.000842   -0.000231
 step:  10.1289(harm= 10.1289)  dis= 0.00324  next Energy=   -74.434063 (dE=-0.581E-03)
 bond charge predicted
       N       E                     dE             d eps       ncg     rms          rms(c)
DAV:   1    -0.744339163477E+02    0.11809E-03   -0.79394E-02  6660   0.924E-01    0.383E-02
RMM:   2    -0.744341489391E+02   -0.23259E-03   -0.16171E-03  6583   0.168E-01    0.740E-02
RMM:   3    -0.744341825962E+02   -0.33657E-04   -0.14801E-04  6947   0.512E-02    0.850E-02
RMM:   4    -0.744340688005E+02    0.11380E-03   -0.34428E-05  4488   0.266E-02    0.220E-02
RMM:   5    -0.744340610551E+02    0.77454E-05   -0.87159E-06  3483   0.197E-02
  20 F= -.74434061E+02 E0= -.74375376E+02  d E =-.578236E-03
 curvature:  -8.13 expect dE=-0.102E-02 dE for cont linesearch -0.173E-04
 trial: gam= 0.89483 g(F)=  0.125E-03 g(S)=  0.000E+00 ort =-0.198E-04 (trialstep = 0.614E+01)
 search vector abs. value=  0.237E-03
 bond charge predicted
       N       E                     dE             d eps       ncg     rms          rms(c)
DAV:   1    -0.744337807263E+02    0.28807E-03   -0.50294E-01  6600   0.227E+00    0.972E-02
RMM:   2    -0.744353538984E+02   -0.15732E-02   -0.88723E-03  6592   0.401E-01    0.231E-01
RMM:   3    -0.744356691010E+02   -0.31520E-03   -0.12281E-03  8089   0.142E-01    0.259E-01
RMM:   4    -0.744347552951E+02    0.91381E-03   -0.31381E-04  6792   0.644E-02    0.105E-01
RMM:   5    -0.744345773160E+02    0.17798E-03   -0.82099E-05  6096   0.352E-02    0.471E-02
RMM:   6    -0.744345608818E+02    0.16434E-04   -0.55937E-05  5596   0.292E-02    0.404E-02
RMM:   7    -0.744345624318E+02   -0.15500E-05   -0.11361E-04  6603   0.400E-02    0.410E-02
RMM:   8    -0.744345337183E+02    0.28714E-04   -0.35366E-05  4538   0.228E-02    0.119E-02
RMM:   9    -0.744345316787E+02    0.20396E-05   -0.59762E-06  3484   0.159E-02
  21 F= -.74434532E+02 E0= -.74375830E+02  d E =-.470624E-03
 trial-energy change:   -0.000471  1 .order   -0.000488   -0.000659   -0.000317
 step:  11.8196(harm= 11.8196)  dis= 0.00369  next Energy=   -74.434695 (dE=-0.634E-03)
 bond charge predicted
       N       E                     dE             d eps       ncg     rms          rms(c)
DAV:   1    -0.744338933412E+02    0.64038E-03   -0.42908E-01  6580   0.210E+00    0.850E-02
RMM:   2    -0.744348256817E+02   -0.93234E-03   -0.76729E-03  6591   0.373E-01    0.130E-01
RMM:   3    -0.744354742265E+02   -0.64854E-03   -0.99118E-04  8489   0.125E-01    0.234E-01
RMM:   4    -0.744347821602E+02    0.69207E-03   -0.22415E-04  6810   0.515E-02    0.106E-01
RMM:   5    -0.744346002357E+02    0.18192E-03   -0.69307E-05  5736   0.318E-02    0.424E-02
RMM:   6    -0.744345815531E+02    0.18683E-04   -0.37877E-05  4618   0.258E-02    0.329E-02
RMM:   7    -0.744345898045E+02   -0.82514E-05   -0.10317E-04  6479   0.394E-02    0.389E-02
RMM:   8    -0.744345655995E+02    0.24205E-04   -0.28046E-05  4034   0.213E-02    0.118E-02
RMM:   9    -0.744345639116E+02    0.16879E-05   -0.61451E-06  3478   0.169E-02
  22 F= -.74434564E+02 E0= -.74375861E+02  d E =-.502856E-03
 curvature: -13.05 expect dE=-0.818E-03 dE for cont linesearch -0.308E-04
 trial: gam= 0.00000 g(F)=  0.627E-04 g(S)=  0.000E+00 ort =-0.237E-04 (trialstep = 0.728E+01)
 search vector abs. value=  0.627E-04
 bond charge predicted
       N       E                     dE             d eps       ncg     rms          rms(c)
DAV:   1    -0.744344623583E+02    0.10324E-03   -0.18314E-01  6620   0.142E+00    0.774E-02
RMM:   2    -0.744354305510E+02   -0.96819E-03   -0.45215E-03  6597   0.258E-01    0.198E-01
RMM:   3    -0.744353651427E+02    0.65408E-04   -0.50472E-04  7422   0.878E-02    0.181E-01
RMM:   4    -0.744348460588E+02    0.51908E-03   -0.20114E-04  6562   0.569E-02    0.466E-02
RMM:   5    -0.744348298917E+02    0.16167E-04   -0.36766E-05  4626   0.249E-02    0.423E-02
RMM:   6    -0.744348052878E+02    0.24604E-04   -0.15460E-05  3584   0.245E-02    0.161E-02
RMM:   7    -0.744348052760E+02    0.11803E-07   -0.22159E-05  3824   0.190E-02
  23 F= -.74434805E+02 E0= -.74376248E+02  d E =-.241364E-03
 trial-energy change:   -0.000241  1 .order   -0.000271   -0.000456   -0.000085
 step:   8.9518(harm=  8.9518)  dis= 0.00383  next Energy=   -74.434845 (dE=-0.281E-03)
 bond charge predicted
       N       E                     dE             d eps       ncg     rms          rms(c)
DAV:   1    -0.744347731476E+02    0.32140E-04   -0.96703E-03  7110   0.330E-01    0.207E-02
RMM:   2    -0.744348707214E+02   -0.97574E-04   -0.27493E-04  6531   0.688E-02    0.713E-02
RMM:   3    -0.744348245597E+02    0.46162E-04   -0.32718E-05  4416   0.228E-02    0.428E-02
RMM:   4    -0.744347976330E+02    0.26927E-04   -0.16209E-05  3675   0.226E-02    0.173E-02
RMM:   5    -0.744347941291E+02    0.35039E-05   -0.53931E-06  3400   0.141E-02
  24 F= -.74434794E+02 E0= -.74376236E+02  d E =-.230218E-03
 curvature:  -4.48 expect dE=-0.228E-03 dE for cont linesearch -0.207E-04
 trial: gam= 0.00000 g(F)=  0.509E-04 g(S)=  0.000E+00 ort =-0.170E-04 (trialstep = 0.761E+01)
 search vector abs. value=  0.509E-04
 bond charge predicted
       N       E                     dE             d eps       ncg     rms          rms(c)
DAV:   1    -0.744343850497E+02    0.41258E-03   -0.15948E-01  6620   0.139E+00    0.672E-02
RMM:   2    -0.744365520736E+02   -0.21670E-02   -0.44304E-03  6623   0.242E-01    0.346E-01
RMM:   3    -0.744348288093E+02    0.17233E-02   -0.40822E-04  6961   0.889E-02    0.714E-02
RMM:   4    -0.744348428804E+02   -0.14071E-04   -0.13752E-04  6608   0.466E-02    0.755E-02
RMM:   5    -0.744347494624E+02    0.93418E-04   -0.28347E-05  4123   0.221E-02    0.325E-02
RMM:   6    -0.744347476933E+02    0.17691E-05   -0.29218E-05  4113   0.280E-02
  25 F= -.74434748E+02 E0= -.74376073E+02  d E =0.464358E-04
 trial-energy change:    0.000046  1 .order    0.000001   -0.000387    0.000390
 step:   3.1494(harm=  3.7929)  dis= 0.00170  next Energy=   -74.434871 (dE=-0.769E-04)
 bond charge predicted
       N       E                     dE             d eps       ncg     rms          rms(c)
DAV:   1    -0.744347342340E+02    0.15228E-04   -0.54999E-02  6740   0.824E-01    0.372E-02
RMM:   2    -0.744350660653E+02   -0.33183E-03   -0.15584E-03  6588   0.150E-01    0.117E-01
RMM:   3    -0.744349322583E+02    0.13381E-03   -0.12569E-04  6449   0.492E-02    0.591E-02
RMM:   4    -0.744349021032E+02    0.30155E-04   -0.40763E-05  4792   0.278E-02    0.442E-02
RMM:   5    -0.744348744315E+02    0.27672E-04   -0.14437E-05  3617   0.233E-02    0.230E-02
RMM:   6    -0.744348686610E+02    0.57705E-05   -0.91502E-06  3535   0.169E-02
  26 F= -.74434869E+02 E0= -.74376220E+02  d E =-.745318E-04
 curvature:  -1.84 expect dE=-0.872E-05 dE for cont linesearch -0.499E-06
 trial: gam= 0.02010 g(F)=  0.473E-05 g(S)=  0.000E+00 ort = 0.371E-05 (trialstep = 0.672E+01)
 search vector abs. value=  0.490E-05
 reached required accuracy - stopping structural energy minimisation
 writing wavefunctions
