 running on   15 total cores
 distrk:  each k-point on   15 cores,    1 groups
 distr:  one band on    1 cores,   15 groups
 using from now: INCAR     
 vasp.5.4.1 24Jun15 (build Oct 26 2018 17:15:27) complex                        
  
 POSCAR found type information on POSCAR  Pt O 
 POSCAR found :  2 types and      17 ions
 scaLAPACK will be used

 ----------------------------------------------------------------------------- 
|                                                                             |
|           W    W    AA    RRRRR   N    N  II  N    N   GGGG   !!!           |
|           W    W   A  A   R    R  NN   N  II  NN   N  G    G  !!!           |
|           W    W  A    A  R    R  N N  N  II  N N  N  G       !!!           |
|           W WW W  AAAAAA  RRRRR   N  N N  II  N  N N  G  GGG   !            |
|           WW  WW  A    A  R   R   N   NN  II  N   NN  G    G                |
|           W    W  A    A  R    R  N    N  II  N    N   GGGG   !!!           |
|                                                                             |
|      For optimal performance we recommend to set                            |
|        NCORE= 4 - approx SQRT( number of cores)                             |
|      NCORE specifies how many cores store one orbital (NPAR=cpu/NCORE).     |
|      This setting can  greatly improve the performance of VASP for DFT.     |
|      The default, NPAR=number of cores might be grossly inefficient         |
|      on modern multi-core architectures or massively parallel machines.     |
|      Do your own testing !!!!                                               |
|      Unfortunately you need to use the default for GW and RPA calculations. |
|      (for HF NCORE is supported but not extensively tested yet)             |
|                                                                             |
 ----------------------------------------------------------------------------- 

 LDA part: xc-table for Ceperly-Alder, standard interpolation
 found WAVECAR, reading the header
  number of bands has changed, file:   100 present:   105
  trying to continue reading WAVECAR, but it might fail
 POSCAR, INCAR and KPOINTS ok, starting setup
 WARNING: small aliasing (wrap around) errors must be expected
 FFT: planning ...
 reading WAVECAR
 random initialization beyond band          101
 the WAVECAR file was read successfully
 initial charge from wavefunction
 entering main loop
       N       E                     dE             d eps       ncg     rms          rms(c)
DAV:   1    -0.878494517241E+03   -0.87849E+03   -0.12711E+04  8250   0.238E+02    0.915E+01
RMM:   2    -0.935778628632E+03   -0.57284E+02   -0.40448E+03 11524   0.188E+02    0.662E+01
RMM:   3    -0.198909964037E+03    0.73687E+03   -0.76912E+02  7900   0.105E+02    0.341E+01
RMM:   4    -0.418420259108E+03   -0.21951E+03   -0.13559E+03 10823   0.895E+01    0.770E+01
RMM:   5    -0.132461331145E+03    0.28596E+03   -0.14578E+02  9412   0.448E+01    0.452E+01
RMM:   6    -0.185981053043E+03   -0.53520E+02   -0.14778E+02 11742   0.292E+01    0.509E+01
RMM:   7    -0.106388438443E+03    0.79593E+02   -0.16630E+02 11531   0.337E+01    0.327E+01
RMM:   8    -0.964458351949E+02    0.99426E+01   -0.13843E+02 11495   0.253E+01    0.207E+01
RMM:   9    -0.197607435651E+03   -0.10116E+03   -0.24861E+02  9886   0.311E+01    0.424E+01
RMM:  10    -0.106311997085E+03    0.91295E+02   -0.73121E+01  9314   0.179E+01    0.233E+01
RMM:  11    -0.109713876137E+03   -0.34019E+01   -0.39980E+01  8899   0.108E+01    0.254E+01
RMM:  12    -0.105820524368E+03    0.38934E+01   -0.11844E+01  7616   0.100E+01    0.170E+01
RMM:  13    -0.111276440320E+03   -0.54559E+01   -0.49487E+00  7571   0.682E+00    0.192E+01
RMM:  14    -0.104621174244E+03    0.66553E+01   -0.21391E+00  7461   0.417E+00    0.154E+01
RMM:  15    -0.101772193972E+03    0.28490E+01   -0.15037E+00  7565   0.389E+00    0.136E+01
RMM:  16    -0.100353654131E+03    0.14185E+01   -0.47525E-01  7625   0.223E+00    0.126E+01
RMM:  17    -0.991318148694E+02    0.12218E+01   -0.18197E-01  7599   0.136E+00    0.111E+01
RMM:  18    -0.989801530477E+02    0.15166E+00   -0.61143E-02  7574   0.753E-01    0.110E+01
RMM:  19    -0.969878663698E+02    0.19923E+01   -0.34809E-01  7374   0.160E+00    0.537E+00
RMM:  20    -0.970550048904E+02   -0.67139E-01   -0.46733E-02  7194   0.909E-01    0.601E+00
RMM:  21    -0.969763094881E+02    0.78695E-01   -0.19615E-01  7447   0.105E+00    0.640E+00
RMM:  22    -0.965346440869E+02    0.44167E+00   -0.54813E-02  7186   0.914E-01    0.372E+00
RMM:  23    -0.966515101223E+02   -0.11687E+00   -0.12779E-01  7433   0.101E+00    0.477E+00
RMM:  24    -0.964168706645E+02    0.23464E+00   -0.16231E-02  7598   0.443E-01    0.296E+00
RMM:  25    -0.967787376656E+02   -0.36187E+00   -0.22368E-02  7673   0.354E-01    0.549E+00
RMM:  26    -0.963576986189E+02    0.42104E+00   -0.22199E-02  7295   0.398E-01    0.256E+00
RMM:  27    -0.962479514311E+02    0.10975E+00   -0.17912E-02  7659   0.396E-01    0.112E+00
RMM:  28    -0.962284792874E+02    0.19472E-01   -0.10893E-02  7901   0.280E-01    0.139E+00
RMM:  29    -0.962376072669E+02   -0.91280E-02   -0.27029E-03  8033   0.153E-01    0.187E+00
RMM:  30    -0.962160446515E+02    0.21563E-01   -0.17077E-03  7270   0.145E-01    0.100E+00
RMM:  31    -0.966725043215E+02   -0.45646E+00   -0.60623E-02  7317   0.542E-01    0.537E+00
RMM:  32    -0.965526025975E+02    0.11990E+00   -0.70011E-03  7207   0.381E-01    0.452E+00
RMM:  33    -0.963699992562E+02    0.18260E+00   -0.45812E-03  7211   0.153E-01    0.307E+00
RMM:  34    -0.962071751405E+02    0.16282E+00   -0.19408E-02  7400   0.320E-01    0.573E-01
RMM:  35    -0.963518930466E+02   -0.14472E+00   -0.36984E-02  7685   0.471E-01    0.387E+00
RMM:  36    -0.962501409388E+02    0.10175E+00   -0.39767E-03  7191   0.296E-01    0.232E+00
RMM:  37    -0.962623589095E+02   -0.12218E-01   -0.15072E-03  7999   0.105E-01    0.254E+00
RMM:  38    -0.962123380120E+02    0.50021E-01   -0.20194E-03  7358   0.123E-01    0.142E+00
RMM:  39    -0.962145023733E+02   -0.21644E-02   -0.12283E-03  7179   0.116E-01    0.148E+00
RMM:  40    -0.961898042453E+02    0.24698E-01   -0.29079E-03  7226   0.119E-01    0.263E-01
RMM:  41    -0.962071058778E+02   -0.17302E-01   -0.18942E-03  7198   0.118E-01    0.123E+00
RMM:  42    -0.961911336839E+02    0.15972E-01   -0.98096E-04  7173   0.920E-02    0.415E-01
RMM:  43    -0.961892046314E+02    0.19291E-02   -0.57076E-04  7326   0.605E-02    0.813E-02
RMM:  44    -0.961898156951E+02   -0.61106E-03   -0.12728E-04  6527   0.382E-02    0.193E-01
RMM:  45    -0.961902074204E+02   -0.39173E-03   -0.10284E-04  5840   0.265E-02    0.135E-01
RMM:  46    -0.961910112728E+02   -0.80385E-03   -0.87844E-05  6252   0.248E-02    0.194E-01
RMM:  47    -0.961921462762E+02   -0.11350E-02   -0.58640E-05  5592   0.195E-02    0.316E-01
RMM:  48    -0.961912449971E+02    0.90128E-03   -0.35467E-05  5120   0.176E-02    0.146E-01
RMM:  49    -0.961912066393E+02    0.38358E-04   -0.15234E-05  4246   0.149E-02    0.129E-01
RMM:  50    -0.961910662481E+02    0.14039E-03   -0.15098E-05  4218   0.118E-02    0.621E-02
RMM:  51    -0.961910618304E+02    0.44177E-05   -0.11324E-05  4112   0.145E-02
   1 F= -.96191062E+02 E0= -.96093215E+02  d E =-.961911E+02
 curvature:   0.00 expect dE= 0.000E+00 dE for cont linesearch  0.000E+00
 trial: gam= 0.00000 g(F)=  0.178E+00 g(S)=  0.000E+00 ort = 0.000E+00 (trialstep = 0.100E+01)
 search vector abs. value=  0.178E+00
 bond charge predicted
       N       E                     dE             d eps       ncg     rms          rms(c)
DAV:   1    -0.963509669998E+02   -0.15990E+00   -0.92761E+00  7950   0.932E+00    0.451E-01
RMM:   2    -0.964011145848E+02   -0.50148E-01   -0.19846E-01  7202   0.130E+00    0.182E+00
RMM:   3    -0.963808335088E+02    0.20281E-01   -0.14830E-02  7718   0.461E-01    0.915E-01
RMM:   4    -0.963709873951E+02    0.98461E-02   -0.54055E-03  7499   0.238E-01    0.439E-01
RMM:   5    -0.963690733929E+02    0.19140E-02   -0.12128E-03  7201   0.111E-01    0.347E-01
RMM:   6    -0.963685569076E+02    0.51649E-03   -0.11537E-03  7177   0.116E-01    0.270E-01
RMM:   7    -0.963679133656E+02    0.64354E-03   -0.15874E-03  7234   0.120E-01    0.142E-01
RMM:   8    -0.963676492800E+02    0.26409E-03   -0.27435E-04  7174   0.683E-02    0.761E-02
RMM:   9    -0.963676046033E+02    0.44677E-04   -0.56399E-05  5951   0.262E-02    0.383E-02
RMM:  10    -0.963675929408E+02    0.11662E-04   -0.20989E-05  4088   0.220E-02    0.177E-02
RMM:  11    -0.963676180522E+02   -0.25111E-04   -0.15868E-05  4034   0.163E-02    0.252E-02
RMM:  12    -0.963676257531E+02   -0.77008E-05   -0.69378E-06  3890   0.143E-02
   2 F= -.96367626E+02 E0= -.96270999E+02  d E =-.176564E+00
 ZBRENT: can't locate minimum, use default step
 trial-energy change:   -0.176564  1 .order   -0.177269   -0.177988   -0.176550
 step:   4.0000(harm=123.7870)  dis= 0.04108  next Energy=  -107.207347 (dE=-0.110E+02)
 bond charge predicted
       N       E                     dE             d eps       ncg     rms          rms(c)
DAV:   1    -0.967153771247E+02   -0.34776E+00   -0.83755E+01  7275   0.283E+01    0.149E+00
RMM:   2    -0.983234074176E+02   -0.16080E+01   -0.21829E+00  7219   0.478E+00    0.104E+01
RMM:   3    -0.969745400965E+02    0.13489E+01   -0.21966E-01  7512   0.160E+00    0.245E+00
RMM:   4    -0.968862361492E+02    0.88304E-01   -0.55321E-02  7336   0.825E-01    0.885E-01
RMM:   5    -0.968854931673E+02    0.74298E-03   -0.13787E-02  7238   0.379E-01    0.115E+00
RMM:   6    -0.968764231676E+02    0.90700E-02   -0.10456E-02  7176   0.365E-01    0.795E-01
RMM:   7    -0.968731961442E+02    0.32270E-02   -0.13704E-02  7220   0.382E-01    0.497E-01
RMM:   8    -0.968702585002E+02    0.29376E-02   -0.43972E-03  7241   0.232E-01    0.335E-01
RMM:   9    -0.968688698601E+02    0.13886E-02   -0.43749E-04  7487   0.706E-02    0.139E-01
RMM:  10    -0.968685276007E+02    0.34226E-03   -0.33627E-04  7163   0.676E-02    0.732E-02
RMM:  11    -0.968685408345E+02   -0.13234E-04   -0.24506E-04  7176   0.571E-02    0.117E-01
RMM:  12    -0.968684689818E+02    0.71853E-04   -0.46194E-05  5385   0.239E-02    0.924E-02
RMM:  13    -0.968684073053E+02    0.61676E-04   -0.23113E-05  4459   0.193E-02    0.488E-02
RMM:  14    -0.968685229836E+02   -0.11568E-03   -0.18611E-05  4252   0.155E-02    0.473E-02
RMM:  15    -0.968686453912E+02   -0.12241E-03   -0.14439E-05  4198   0.148E-02    0.454E-02
RMM:  16    -0.968688388038E+02   -0.19341E-03   -0.30258E-05  4876   0.135E-02    0.320E-02
RMM:  17    -0.968689485190E+02   -0.10972E-03   -0.17538E-05  4436   0.105E-02    0.296E-02
RMM:  18    -0.968690409455E+02   -0.92426E-04   -0.36404E-05  5038   0.119E-02    0.122E-02
RMM:  19    -0.968690571477E+02   -0.16202E-04   -0.83702E-06  4041   0.872E-03    0.934E-03
RMM:  20    -0.968690605190E+02   -0.33713E-05   -0.44503E-06  3779   0.646E-03
   3 F= -.96869061E+02 E0= -.96776286E+02  d E =-.677999E+00
 curvature:  -2.99 expect dE=-0.416E+00 dE for cont linesearch -0.408E+00
 ZBRENT: increasing intervall
 opt :  10.0000  next Energy=   -97.679849 (dE=-0.149E+01)
 bond charge predicted
       N       E                     dE             d eps       ncg     rms          rms(c)
DAV:   1    -0.967771149602E+02    0.91942E-01   -0.33321E+02  7275   0.572E+01    0.312E+00
RMM:   2    -0.102081520502E+03   -0.53044E+01   -0.11531E+01  7174   0.112E+01    0.151E+01
RMM:   3    -0.981115912908E+02    0.39699E+01   -0.11061E+00  7749   0.336E+00    0.538E+00
RMM:   4    -0.976614846695E+02    0.45011E+00   -0.22843E-01  7206   0.178E+00    0.169E+00
RMM:   5    -0.976591519057E+02    0.23328E-02   -0.62470E-02  7338   0.817E-01    0.222E+00
RMM:   6    -0.976170199853E+02    0.42132E-01   -0.45778E-02  7169   0.807E-01    0.137E+00
RMM:   7    -0.976064131128E+02    0.10607E-01   -0.56187E-02  7171   0.847E-01    0.101E+00
RMM:   8    -0.976050046674E+02    0.14084E-02   -0.38924E-02  7262   0.663E-01    0.989E-01
RMM:   9    -0.975961412895E+02    0.88634E-02   -0.54041E-03  7466   0.249E-01    0.638E-01
RMM:  10    -0.975897919662E+02    0.63493E-02   -0.15074E-03  7199   0.136E-01    0.180E-01
RMM:  11    -0.975893767872E+02    0.41518E-03   -0.18391E-03  7180   0.155E-01    0.226E-01
RMM:  12    -0.975888641699E+02    0.51262E-03   -0.36329E-04  7517   0.639E-02    0.174E-01
RMM:  13    -0.975883150648E+02    0.54911E-03   -0.11062E-04  7241   0.314E-02    0.908E-02
RMM:  14    -0.975881426709E+02    0.17239E-03   -0.38215E-05  5064   0.196E-02    0.565E-02
RMM:  15    -0.975880844349E+02    0.58236E-04   -0.50267E-05  5486   0.237E-02    0.825E-02
RMM:  16    -0.975881311734E+02   -0.46739E-04   -0.26798E-05  4615   0.173E-02    0.650E-02
RMM:  17    -0.975882452349E+02   -0.11406E-03   -0.22429E-05  4451   0.155E-02    0.342E-02
RMM:  18    -0.975886228475E+02   -0.37761E-03   -0.65544E-05  5557   0.191E-02    0.302E-02
RMM:  19    -0.975887319714E+02   -0.10912E-03   -0.19775E-05  4476   0.112E-02    0.231E-02
RMM:  20    -0.975888291952E+02   -0.97224E-04   -0.32146E-05  4833   0.120E-02    0.658E-03
RMM:  21    -0.975888524772E+02   -0.23282E-04   -0.69958E-06  4137   0.907E-03    0.871E-03
RMM:  22    -0.975888570159E+02   -0.45387E-05   -0.24124E-06  3688   0.549E-03
   4 F= -.97588857E+02 E0= -.97503991E+02  d E =-.139780E+01
 curvature:  -5.94 expect dE=-0.347E+00 dE for cont linesearch -0.157E+00
 ZBRENT: increasing intervall
 opt :  22.0000  next Energy=   -97.363880 (dE=-0.117E+01)
 bond charge predicted
       N       E                     dE             d eps       ncg     rms          rms(c)
DAV:   1    -0.912051285933E+02    0.63837E+01   -0.12196E+03  7140   0.107E+02    0.591E+00
RMM:   2    -0.103623234737E+03   -0.12418E+02   -0.61641E+01  7228   0.258E+01    0.177E+01
RMM:   3    -0.982054308690E+02    0.54178E+01   -0.57044E+00  8081   0.688E+00    0.110E+01
RMM:   4    -0.960627466416E+02    0.21427E+01   -0.81562E-01  7176   0.336E+00    0.461E+00
RMM:   5    -0.959615386228E+02    0.10121E+00   -0.18173E-01  7602   0.137E+00    0.414E+00
RMM:   6    -0.958412075169E+02    0.12033E+00   -0.22915E-01  7190   0.157E+00    0.298E+00
RMM:   7    -0.957629315427E+02    0.78276E-01   -0.43218E-01  7191   0.221E+00    0.164E+00
RMM:   8    -0.957499557211E+02    0.12976E-01   -0.14800E-01  7970   0.114E+00    0.119E+00
RMM:   9    -0.957280330986E+02    0.21923E-01   -0.40044E-02  7212   0.685E-01    0.838E-01
RMM:  10    -0.957161099060E+02    0.11923E-01   -0.11580E-02  7188   0.358E-01    0.462E-01
RMM:  11    -0.957120599883E+02    0.40499E-02   -0.74660E-03  7226   0.293E-01    0.217E-01
RMM:  12    -0.957122562186E+02   -0.19623E-03   -0.31726E-03  7913   0.174E-01    0.224E-01
RMM:  13    -0.957112030387E+02    0.10532E-02   -0.67483E-04  7322   0.855E-02    0.972E-02
RMM:  14    -0.957111554167E+02    0.47622E-04   -0.49682E-04  7364   0.585E-02    0.166E-01
RMM:  15    -0.957108679572E+02    0.28746E-03   -0.87214E-05  6434   0.304E-02    0.135E-01
RMM:  16    -0.957103566580E+02    0.51130E-03   -0.80014E-05  6407   0.228E-02    0.202E-02
RMM:  17    -0.957105130667E+02   -0.15641E-03   -0.52537E-05  5529   0.228E-02    0.954E-02
RMM:  18    -0.957106282314E+02   -0.11516E-03   -0.41838E-05  5105   0.194E-02    0.227E-02
RMM:  19    -0.957110277044E+02   -0.39947E-03   -0.63658E-05  5444   0.180E-02    0.106E-02
RMM:  20    -0.957111584187E+02   -0.13071E-03   -0.19634E-05  4519   0.119E-02    0.144E-02
RMM:  21    -0.957112711817E+02   -0.11276E-03   -0.25736E-05  4728   0.113E-02    0.204E-02
RMM:  22    -0.957112914987E+02   -0.20317E-04   -0.13339E-05  4311   0.980E-03    0.600E-03
RMM:  23    -0.957112965649E+02   -0.50662E-05   -0.36661E-06  3856   0.705E-03
   5 F= -.95711297E+02 E0= -.95638524E+02  d E =0.479765E+00
 curvature:   8.52 expect dE= 0.208E+02 dE for cont linesearch  0.100E+02
 ZBRENT: bracketing found
 ZBRENT: interpolating
 opt :  11.5642  next Energy=   -97.642466 (dE=-0.145E+01)
 bond charge predicted
       N       E                     dE             d eps       ncg     rms          rms(c)
DAV:   1    -0.946232993759E+02    0.10880E+01   -0.89813E+02  7140   0.780E+01    0.765E+00
RMM:   2    -0.989409167834E+02   -0.43176E+01   -0.40716E+01  7216   0.201E+01    0.884E+00
RMM:   3    -0.107354903607E+03   -0.84140E+01   -0.72705E+00  8741   0.768E+00    0.204E+01
RMM:   4    -0.984741385992E+02    0.88808E+01   -0.17678E+00  7328   0.407E+00    0.659E+00
RMM:   5    -0.977523460337E+02    0.72179E+00   -0.38670E-01  7268   0.205E+00    0.223E+00
RMM:   6    -0.977187003884E+02    0.33646E-01   -0.14816E-01  7174   0.146E+00    0.210E+00
RMM:   7    -0.976938185244E+02    0.24882E-01   -0.79660E-02  7169   0.113E+00    0.159E+00
RMM:   8    -0.976987555458E+02   -0.49370E-02   -0.11028E-01  7200   0.119E+00    0.144E+00
RMM:   9    -0.976735647434E+02    0.25191E-01   -0.33268E-02  7276   0.637E-01    0.806E-01
RMM:  10    -0.976656329660E+02    0.79318E-02   -0.35948E-03  7769   0.203E-01    0.366E-01
RMM:  11    -0.976645006131E+02    0.11324E-02   -0.24375E-03  7168   0.190E-01    0.205E-01
RMM:  12    -0.976642077103E+02    0.29290E-03   -0.14651E-03  7169   0.140E-01    0.974E-02
RMM:  13    -0.976643155109E+02   -0.10780E-03   -0.37623E-04  7183   0.728E-02    0.744E-02
RMM:  14    -0.976646180606E+02   -0.30255E-03   -0.11055E-04  6735   0.359E-02    0.914E-02
RMM:  15    -0.976647339771E+02   -0.11592E-03   -0.65216E-05  5779   0.257E-02    0.511E-02
RMM:  16    -0.976648123773E+02   -0.78400E-04   -0.18937E-05  4389   0.163E-02    0.463E-02
RMM:  17    -0.976649804020E+02   -0.16802E-03   -0.52088E-05  5354   0.204E-02    0.356E-02
RMM:  18    -0.976651047859E+02   -0.12438E-03   -0.86733E-05  5875   0.219E-02    0.209E-02
RMM:  19    -0.976651181177E+02   -0.13332E-04   -0.12774E-05  4323   0.944E-03    0.153E-02
RMM:  20    -0.976651275485E+02   -0.94308E-05   -0.13601E-05  4309   0.908E-03
   6 F= -.97665128E+02 E0= -.97582243E+02  d E =-.147407E+01
 curvature:  -0.05 expect dE=-0.267E-02 dE for cont linesearch -0.196E-03
 ZBRENT: interpolating
 opt :  12.5627  next Energy=   -97.679732 (dE=-0.149E+01)
 bond charge predicted
       N       E                     dE             d eps       ncg     rms          rms(c)
DAV:   1    -0.976595137461E+02    0.56044E-02   -0.94675E+00  7500   0.946E+00    0.501E-01
RMM:   2    -0.977315428675E+02   -0.72029E-01   -0.21702E-01  7192   0.151E+00    0.188E+00
RMM:   3    -0.976823393234E+02    0.49204E-01   -0.16876E-02  7777   0.481E-01    0.516E-01
RMM:   4    -0.976819047168E+02    0.43461E-03   -0.61570E-03  7213   0.294E-01    0.494E-01
RMM:   5    -0.976784161766E+02    0.34885E-02   -0.19122E-03  7171   0.154E-01    0.248E-01
RMM:   6    -0.976782022698E+02    0.21391E-03   -0.15179E-03  7162   0.136E-01    0.217E-01
RMM:   7    -0.976776047176E+02    0.59755E-03   -0.10606E-03  7170   0.113E-01    0.114E-01
RMM:   8    -0.976773834616E+02    0.22126E-03   -0.26625E-04  7165   0.613E-02    0.476E-02
RMM:   9    -0.976773648049E+02    0.18657E-04   -0.32343E-05  4826   0.193E-02    0.189E-02
RMM:  10    -0.976773935098E+02   -0.28705E-04   -0.20516E-05  4145   0.216E-02    0.350E-02
RMM:  11    -0.976773913793E+02    0.21304E-05   -0.10190E-05  4022   0.161E-02
   7 F= -.97677391E+02 E0= -.97595769E+02  d E =-.148633E+01
 curvature:  -3.39 expect dE=-0.256E+00 dE for cont linesearch -0.875E-04
 trial: gam= 0.43654 g(F)=  0.756E-01 g(S)=  0.000E+00 ort =-0.214E-02 (trialstep = 0.331E+01)
 search vector abs. value=  0.108E+00
 bond charge predicted
       N       E                     dE             d eps       ncg     rms          rms(c)
DAV:   1    -0.977395627218E+02   -0.62169E-01   -0.64454E+01  7140   0.230E+01    0.130E+00
RMM:   2    -0.978626461125E+02   -0.12308E+00   -0.13909E+00  7179   0.499E+00    0.886E-01
RMM:   3    -0.980018119374E+02   -0.13917E+00   -0.19829E-01  9536   0.126E+00    0.288E+00
RMM:   4    -0.978730867272E+02    0.12873E+00   -0.27528E-02  7544   0.478E-01    0.910E-01
RMM:   5    -0.978609366628E+02    0.12150E-01   -0.86632E-03  7175   0.321E-01    0.445E-01
RMM:   6    -0.978620255383E+02   -0.10889E-02   -0.86915E-03  7341   0.283E-01    0.527E-01
RMM:   7    -0.978600491765E+02    0.19764E-02   -0.88031E-03  7198   0.309E-01    0.360E-01
RMM:   8    -0.978586620397E+02    0.13871E-02   -0.32333E-03  7208   0.195E-01    0.205E-01
RMM:   9    -0.978580048870E+02    0.65715E-03   -0.80666E-04  7168   0.992E-02    0.102E-01
RMM:  10    -0.978577821001E+02    0.22279E-03   -0.29243E-04  7155   0.566E-02    0.363E-02
RMM:  11    -0.978577627908E+02    0.19309E-04   -0.14360E-04  7033   0.388E-02    0.280E-02
RMM:  12    -0.978577570144E+02    0.57763E-05   -0.66925E-05  6175   0.270E-02
   8 F= -.97857757E+02 E0= -.97778407E+02  d E =-.180366E+00
 trial-energy change:   -0.180366  1 .order   -0.177926   -0.247188   -0.108664
 step:   5.5218(harm=  5.9110)  dis= 0.07233  next Energy=   -97.894717 (dE=-0.217E+00)
 bond charge predicted
       N       E                     dE             d eps       ncg     rms          rms(c)
DAV:   1    -0.978530829543E+02    0.46798E-02   -0.28671E+01  7140   0.153E+01    0.868E-01
RMM:   2    -0.979109574687E+02   -0.57875E-01   -0.56795E-01  7173   0.298E+00    0.923E-01
RMM:   3    -0.980404311806E+02   -0.12947E+00   -0.86141E-02  9082   0.860E-01    0.285E+00
RMM:   4    -0.979047691913E+02    0.13566E+00   -0.22569E-02  7375   0.435E-01    0.454E-01
RMM:   5    -0.979023400405E+02    0.24292E-02   -0.47248E-03  7339   0.234E-01    0.393E-01
RMM:   6    -0.979005402668E+02    0.17998E-02   -0.24847E-03  7260   0.161E-01    0.240E-01
RMM:   7    -0.979007117553E+02   -0.17149E-03   -0.39794E-03  7179   0.203E-01    0.215E-01
RMM:   8    -0.979000721956E+02    0.63956E-03   -0.12488E-03  7253   0.120E-01    0.114E-01
RMM:   9    -0.978999017430E+02    0.17045E-03   -0.29317E-04  7134   0.609E-02    0.602E-02
RMM:  10    -0.978998259588E+02    0.75784E-04   -0.11102E-04  6953   0.332E-02    0.187E-02
RMM:  11    -0.978998220416E+02    0.39172E-05   -0.32652E-05  4759   0.206E-02
   9 F= -.97899822E+02 E0= -.97821359E+02  d E =-.222431E+00
 curvature:  -4.17 expect dE=-0.160E-01 dE for cont linesearch -0.792E-03
 ZBRENT: extrapolating
 opt :   5.8752  next Energy=   -97.900621 (dE=-0.223E+00)
 bond charge predicted
       N       E                     dE             d eps       ncg     rms          rms(c)
DAV:   1    -0.978995302227E+02    0.29574E-03   -0.73230E-01  7590   0.244E+00    0.138E-01
RMM:   2    -0.979008125022E+02   -0.12823E-02   -0.13462E-02  7173   0.404E-01    0.114E-01
RMM:   3    -0.979041840782E+02   -0.33716E-02   -0.16621E-03  7983   0.152E-01    0.470E-01
RMM:   4    -0.979007570646E+02    0.34270E-02   -0.48971E-04  7356   0.638E-02    0.760E-02
RMM:   5    -0.979006845951E+02    0.72470E-04   -0.11347E-04  6996   0.391E-02    0.609E-02
RMM:   6    -0.979006415333E+02    0.43062E-04   -0.61582E-05  6186   0.260E-02    0.391E-02
RMM:   7    -0.979006438690E+02   -0.23356E-05   -0.85711E-05  6942   0.319E-02
  10 F= -.97900644E+02 E0= -.97822348E+02  d E =-.223252E+00
 curvature:  -4.20 expect dE=-0.151E-01 dE for cont linesearch -0.948E-05
 trial: gam=-0.01105 g(F)=  0.360E-02 g(S)=  0.000E+00 ort = 0.493E-03 (trialstep = 0.383E+01)
 search vector abs. value=  0.360E-02
 bond charge predicted
       N       E                     dE             d eps       ncg     rms          rms(c)
DAV:   1    -0.979082152181E+02   -0.75737E-02   -0.29921E+00  7290   0.445E+00    0.155E-01
RMM:   2    -0.979175374514E+02   -0.93222E-02   -0.42568E-02  7162   0.804E-01    0.588E-01
RMM:   3    -0.979136656572E+02    0.38718E-02   -0.59630E-03  9901   0.237E-01    0.297E-01
RMM:   4    -0.979124536037E+02    0.12121E-02   -0.60189E-04  7218   0.875E-02    0.147E-01
RMM:   5    -0.979122211092E+02    0.23249E-03   -0.14259E-04  7220   0.403E-02    0.101E-01
RMM:   6    -0.979121301871E+02    0.90922E-04   -0.18701E-04  7165   0.399E-02    0.900E-02
RMM:   7    -0.979120026341E+02    0.12755E-03   -0.69216E-04  7190   0.751E-02    0.422E-02
RMM:   8    -0.979119915328E+02    0.11101E-04   -0.13673E-04  7166   0.472E-02    0.213E-02
RMM:   9    -0.979119869762E+02    0.45567E-05   -0.18799E-05  4164   0.156E-02
  11 F= -.97911987E+02 E0= -.97833883E+02  d E =-.113431E-01
 trial-energy change:   -0.011343  1 .order   -0.011695   -0.013733   -0.009657
 step:  12.8861(harm= 12.8861)  dis= 0.01659  next Energy=   -97.923777 (dE=-0.231E-01)
 bond charge predicted
       N       E                     dE             d eps       ncg     rms          rms(c)
DAV:   1    -0.978958330366E+02    0.16158E-01   -0.16759E+01  7140   0.106E+01    0.421E-01
RMM:   2    -0.979556182468E+02   -0.59785E-01   -0.28375E-01  7162   0.238E+00    0.151E+00
RMM:   3    -0.979338527891E+02    0.21765E-01   -0.47952E-02  9470   0.584E-01    0.815E-01
RMM:   4    -0.979239041760E+02    0.99486E-02   -0.48662E-03  7199   0.281E-01    0.343E-01
RMM:   5    -0.979226696146E+02    0.12346E-02   -0.94685E-04  7291   0.111E-01    0.246E-01
RMM:   6    -0.979221148550E+02    0.55476E-03   -0.89553E-04  7311   0.893E-02    0.224E-01
RMM:   7    -0.979213258722E+02    0.78898E-03   -0.38940E-03  7202   0.191E-01    0.127E-01
RMM:   8    -0.979212111774E+02    0.11469E-03   -0.12647E-03  7694   0.124E-01    0.566E-02
RMM:   9    -0.979211823631E+02    0.28814E-04   -0.17229E-04  7879   0.441E-02    0.471E-02
RMM:  10    -0.979211325155E+02    0.49848E-04   -0.50103E-05  5787   0.240E-02    0.271E-02
RMM:  11    -0.979211177754E+02    0.14740E-04   -0.30852E-05  4336   0.202E-02    0.180E-02
RMM:  12    -0.979211138789E+02    0.38964E-05   -0.39583E-05  5021   0.223E-02
  12 F= -.97921114E+02 E0= -.97843594E+02  d E =-.204700E-01
 curvature:  -6.46 expect dE=-0.195E-01 dE for cont linesearch -0.244E-03
 trial: gam= 0.94042 g(F)=  0.302E-02 g(S)=  0.000E+00 ort =-0.369E-03 (trialstep = 0.368E+01)
 search vector abs. value=  0.551E-02
 bond charge predicted
       N       E                     dE             d eps       ncg     rms          rms(c)
DAV:   1    -0.979214756213E+02   -0.35785E-03   -0.41295E+00  7140   0.583E+00    0.258E-01
RMM:   2    -0.979368143213E+02   -0.15339E-01   -0.77408E-02  7170   0.105E+00    0.730E-01
RMM:   3    -0.979306775703E+02    0.61368E-02   -0.73719E-03  9149   0.293E-01    0.356E-01
RMM:   4    -0.979295572714E+02    0.11203E-02   -0.15996E-03  7245   0.141E-01    0.260E-01
RMM:   5    -0.979285346299E+02    0.10226E-02   -0.40525E-04  7154   0.732E-02    0.104E-01
RMM:   6    -0.979285022943E+02    0.32336E-04   -0.51194E-04  7167   0.746E-02    0.102E-01
RMM:   7    -0.979283640278E+02    0.13827E-03   -0.60613E-04  7220   0.752E-02    0.504E-02
RMM:   8    -0.979283253581E+02    0.38670E-04   -0.84244E-05  6854   0.350E-02    0.230E-02
RMM:   9    -0.979283150576E+02    0.10301E-04   -0.12117E-05  3954   0.148E-02    0.141E-02
RMM:  10    -0.979283108823E+02    0.41753E-05   -0.97637E-06  3863   0.142E-02
  13 F= -.97928311E+02 E0= -.97851113E+02  d E =-.719700E-02
 trial-energy change:   -0.007197  1 .order   -0.007187   -0.009840   -0.004535
 step:   6.8327(harm=  6.8327)  dis= 0.00298  next Energy=   -97.930240 (dE=-0.913E-02)
 bond charge predicted
       N       E                     dE             d eps       ncg     rms          rms(c)
DAV:   1    -0.979254453809E+02    0.28697E-02   -0.30174E+00  7170   0.498E+00    0.221E-01
RMM:   2    -0.979355015341E+02   -0.10056E-01   -0.55920E-02  7170   0.870E-01    0.563E-01
RMM:   3    -0.979322256039E+02    0.32759E-02   -0.50529E-03  8957   0.254E-01    0.317E-01
RMM:   4    -0.979313074888E+02    0.91812E-03   -0.11837E-03  7264   0.120E-01    0.222E-01
RMM:   5    -0.979305458523E+02    0.76164E-03   -0.30005E-04  7150   0.625E-02    0.892E-02
RMM:   6    -0.979305081000E+02    0.37752E-04   -0.35029E-04  7167   0.621E-02    0.824E-02
RMM:   7    -0.979304167591E+02    0.91341E-04   -0.43316E-04  7190   0.635E-02    0.448E-02
RMM:   8    -0.979303866749E+02    0.30084E-04   -0.61006E-05  6255   0.296E-02    0.208E-02
RMM:   9    -0.979303788560E+02    0.78189E-05   -0.10128E-05  3874   0.150E-02
  14 F= -.97930379E+02 E0= -.97853445E+02  d E =-.926498E-02
 curvature:  -7.04 expect dE=-0.140E-01 dE for cont linesearch -0.618E-04
 trial: gam= 0.39122 g(F)=  0.199E-02 g(S)=  0.000E+00 ort = 0.220E-03 (trialstep = 0.431E+01)
 search vector abs. value=  0.300E-02
 bond charge predicted
       N       E                     dE             d eps       ncg     rms          rms(c)
DAV:   1    -0.979325222600E+02   -0.21356E-02   -0.29824E+00  7140   0.513E+00    0.288E-01
RMM:   2    -0.979384999057E+02   -0.59776E-02   -0.60663E-02  7170   0.867E-01    0.233E-01
RMM:   3    -0.979544897152E+02   -0.15990E-01   -0.63779E-03  8083   0.279E-01    0.101E+00
RMM:   4    -0.979381766351E+02    0.16313E-01   -0.22695E-03  7354   0.141E-01    0.155E-01
RMM:   5    -0.979378932299E+02    0.28341E-03   -0.40562E-04  7187   0.778E-02    0.119E-01
RMM:   6    -0.979377036700E+02    0.18956E-03   -0.19436E-04  7170   0.430E-02    0.634E-02
RMM:   7    -0.979377466562E+02   -0.42986E-04   -0.29850E-04  7156   0.587E-02    0.826E-02
RMM:   8    -0.979376388755E+02    0.10778E-03   -0.13612E-04  7144   0.390E-02    0.178E-02
RMM:   9    -0.979376349834E+02    0.38922E-05   -0.13556E-05  3960   0.167E-02
  15 F= -.97937635E+02 E0= -.97860551E+02  d E =-.725613E-02
 trial-energy change:   -0.007256  1 .order   -0.007706   -0.008952   -0.006459
 step:  15.4864(harm= 15.4864)  dis= 0.01611  next Energy=   -97.946450 (dE=-0.161E-01)
 bond charge predicted
       N       E                     dE             d eps       ncg     rms          rms(c)
DAV:   1    -0.979066660802E+02    0.30973E-01   -0.20042E+01  7140   0.133E+01    0.741E-01
RMM:   2    -0.979533742574E+02   -0.46708E-01   -0.42128E-01  7171   0.243E+00    0.845E-01
RMM:   3    -0.980269683877E+02   -0.73594E-01   -0.46059E-02  8699   0.693E-01    0.221E+00
RMM:   4    -0.979458889546E+02    0.81079E-01   -0.14444E-02  7354   0.368E-01    0.408E-01
RMM:   5    -0.979440232662E+02    0.18657E-02   -0.24587E-03  7243   0.179E-01    0.300E-01
RMM:   6    -0.979427936907E+02    0.12296E-02   -0.13538E-03  7217   0.110E-01    0.168E-01
RMM:   7    -0.979431212357E+02   -0.32754E-03   -0.21083E-03  7171   0.153E-01    0.212E-01
RMM:   8    -0.979424073557E+02    0.71388E-03   -0.96074E-04  7185   0.103E-01    0.500E-02
RMM:   9    -0.979423651324E+02    0.42223E-04   -0.13357E-04  7080   0.427E-02    0.352E-02
RMM:  10    -0.979423428546E+02    0.22278E-04   -0.29426E-05  4420   0.194E-02    0.220E-02
RMM:  11    -0.979423383731E+02    0.44816E-05   -0.17032E-05  3934   0.205E-02
  16 F= -.97942338E+02 E0= -.97864774E+02  d E =-.119595E-01
 curvature: -11.21 expect dE=-0.109E-01 dE for cont linesearch -0.440E-03
 ZBRENT: interpolating
 opt :  13.4022  next Energy=   -97.942696 (dE=-0.123E-01)
 bond charge predicted
       N       E                     dE             d eps       ncg     rms          rms(c)
DAV:   1    -0.979417486974E+02    0.59416E-03   -0.69672E-01  7500   0.247E+00    0.142E-01
RMM:   2    -0.979433278532E+02   -0.15792E-02   -0.14453E-02  7170   0.417E-01    0.154E-01
RMM:   3    -0.979464592734E+02   -0.31314E-02   -0.15502E-03  7861   0.147E-01    0.466E-01
RMM:   4    -0.979430526794E+02    0.34066E-02   -0.48183E-04  7293   0.664E-02    0.667E-02
RMM:   5    -0.979429953764E+02    0.57303E-04   -0.81597E-05  6818   0.353E-02    0.576E-02
RMM:   6    -0.979429497917E+02    0.45585E-04   -0.39761E-05  5109   0.222E-02    0.328E-02
RMM:   7    -0.979429622276E+02   -0.12436E-04   -0.79936E-05  7067   0.337E-02    0.408E-02
RMM:   8    -0.979429361363E+02    0.26091E-04   -0.27679E-05  4258   0.199E-02    0.872E-03
RMM:   9    -0.979429352646E+02    0.87177E-06   -0.73099E-06  3845   0.157E-02
  17 F= -.97942935E+02 E0= -.97865455E+02  d E =-.125564E-01
 curvature:  -9.12 expect dE=-0.593E-02 dE for cont linesearch -0.199E-04
 trial: gam= 0.48274 g(F)=  0.651E-03 g(S)=  0.000E+00 ort =-0.810E-04 (trialstep = 0.613E+01)
 search vector abs. value=  0.127E-02
 bond charge predicted
       N       E                     dE             d eps       ncg     rms          rms(c)
DAV:   1    -0.979409543040E+02    0.19818E-02   -0.26927E+00  7140   0.467E+00    0.217E-01
RMM:   2    -0.979458383021E+02   -0.48840E-02   -0.48480E-02  7170   0.812E-01    0.158E-01
RMM:   3    -0.979539989119E+02   -0.81606E-02   -0.57372E-03  9120   0.265E-01    0.731E-01
RMM:   4    -0.979458141658E+02    0.81847E-02   -0.11738E-03  7388   0.106E-01    0.146E-01
RMM:   5    -0.979454963420E+02    0.31782E-03   -0.28302E-04  7211   0.599E-02    0.996E-02
RMM:   6    -0.979453848211E+02    0.11152E-03   -0.21163E-04  7382   0.448E-02    0.780E-02
RMM:   7    -0.979453219056E+02    0.62915E-04   -0.53748E-04  7264   0.690E-02    0.536E-02
RMM:   8    -0.979452826978E+02    0.39208E-04   -0.12209E-04  7234   0.379E-02    0.266E-02
RMM:   9    -0.979452713151E+02    0.11383E-04   -0.15121E-05  4022   0.154E-02    0.166E-02
RMM:  10    -0.979452642077E+02    0.71074E-05   -0.10779E-05  3828   0.158E-02
  18 F= -.97945264E+02 E0= -.97867796E+02  d E =-.232894E-02
 trial-energy change:   -0.002329  1 .order   -0.002747   -0.003751   -0.001743
 step:  11.4504(harm= 11.4504)  dis= 0.00567  next Energy=   -97.946438 (dE=-0.350E-02)
 bond charge predicted
       N       E                     dE             d eps       ncg     rms          rms(c)
DAV:   1    -0.979422242250E+02    0.30471E-02   -0.20242E+00  7140   0.404E+00    0.189E-01
RMM:   2    -0.979459269838E+02   -0.37028E-02   -0.36461E-02  7170   0.699E-01    0.141E-01
RMM:   3    -0.979522281205E+02   -0.63011E-02   -0.43059E-03  9007   0.232E-01    0.641E-01
RMM:   4    -0.979458972218E+02    0.63309E-02   -0.90523E-04  7367   0.933E-02    0.130E-01
RMM:   5    -0.979456417179E+02    0.25550E-03   -0.22116E-04  7204   0.525E-02    0.854E-02
RMM:   6    -0.979455628255E+02    0.78892E-04   -0.16569E-04  7325   0.396E-02    0.657E-02
RMM:   7    -0.979455257331E+02    0.37092E-04   -0.38230E-04  7256   0.584E-02    0.482E-02
RMM:   8    -0.979454946442E+02    0.31089E-04   -0.92029E-05  6965   0.332E-02    0.246E-02
RMM:   9    -0.979454848794E+02    0.97648E-05   -0.11966E-05  3934   0.138E-02
  19 F= -.97945485E+02 E0= -.97868011E+02  d E =-.254961E-02
 curvature: -11.91 expect dE=-0.825E-02 dE for cont linesearch -0.287E-04
 trial: gam= 1.14096 g(F)=  0.693E-03 g(S)=  0.000E+00 ort =-0.554E-04 (trialstep = 0.412E+01)
 search vector abs. value=  0.222E-02
 bond charge predicted
       N       E                     dE             d eps       ncg     rms          rms(c)
DAV:   1    -0.979442353496E+02    0.12593E-02   -0.21636E+00  7140   0.380E+00    0.164E-01
RMM:   2    -0.979473866235E+02   -0.31513E-02   -0.30886E-02  7168   0.687E-01    0.174E-01
RMM:   3    -0.979502562783E+02   -0.28697E-02   -0.38854E-03  9805   0.199E-01    0.442E-01
RMM:   4    -0.979474433650E+02    0.28129E-02   -0.51449E-04  7486   0.628E-02    0.141E-01
RMM:   5    -0.979471776992E+02    0.26567E-03   -0.18806E-04  7147   0.488E-02    0.964E-02
RMM:   6    -0.979470657967E+02    0.11190E-03   -0.20720E-04  7220   0.408E-02    0.766E-02
RMM:   7    -0.979470746548E+02   -0.88581E-05   -0.48687E-04  7325   0.667E-02    0.792E-02
RMM:   8    -0.979469894311E+02    0.85224E-04   -0.21005E-04  7569   0.465E-02    0.283E-02
RMM:   9    -0.979469770661E+02    0.12365E-04   -0.19101E-05  4034   0.186E-02    0.199E-02
RMM:  10    -0.979469671323E+02    0.99338E-05   -0.15062E-05  3836   0.185E-02
  20 F= -.97946967E+02 E0= -.97869474E+02  d E =-.148225E-02
 trial-energy change:   -0.001482  1 .order   -0.001767   -0.002594   -0.000940
 step:   6.4618(harm=  6.4618)  dis= 0.00042  next Energy=   -97.947519 (dE=-0.203E-02)
 bond charge predicted
       N       E                     dE             d eps       ncg     rms          rms(c)
DAV:   1    -0.979461754575E+02    0.80161E-03   -0.69956E-01  7140   0.216E+00    0.921E-02
RMM:   2    -0.979472240545E+02   -0.10486E-02   -0.98346E-03  7167   0.373E-01    0.111E-01
RMM:   3    -0.979482539481E+02   -0.10299E-02   -0.11633E-03  9373   0.115E-01    0.270E-01
RMM:   4    -0.979471902094E+02    0.10637E-02   -0.19676E-04  7566   0.398E-02    0.772E-02
RMM:   5    -0.979471104409E+02    0.79769E-04   -0.59657E-05  5995   0.271E-02    0.561E-02
RMM:   6    -0.979470708698E+02    0.39571E-04   -0.75737E-05  6645   0.271E-02    0.423E-02
RMM:   7    -0.979470816235E+02   -0.10754E-04   -0.15387E-04  7278   0.379E-02    0.467E-02
RMM:   8    -0.979470522232E+02    0.29400E-04   -0.55589E-05  6052   0.248E-02    0.206E-02
RMM:   9    -0.979470466097E+02    0.56135E-05   -0.84849E-06  3803   0.144E-02
  21 F= -.97947047E+02 E0= -.97869517E+02  d E =-.156173E-02
 curvature: -11.41 expect dE=-0.341E-02 dE for cont linesearch -0.166E-04
 trial: gam= 0.23793 g(F)=  0.298E-03 g(S)=  0.000E+00 ort = 0.569E-04 (trialstep = 0.459E+01)
 search vector abs. value=  0.451E-03
 bond charge predicted
       N       E                     dE             d eps       ncg     rms          rms(c)
DAV:   1    -0.979472398692E+02   -0.18765E-03   -0.56262E-01  7140   0.192E+00    0.743E-02
RMM:   2    -0.979495947809E+02   -0.23549E-02   -0.82352E-03  7166   0.332E-01    0.325E-01
RMM:   3    -0.979481852964E+02    0.14095E-02   -0.95096E-04  8926   0.108E-01    0.111E-01
RMM:   4    -0.979479691595E+02    0.21614E-03   -0.16183E-04  7130   0.464E-02    0.513E-02
RMM:   5    -0.979479355428E+02    0.33617E-04   -0.26229E-05  4342   0.162E-02    0.392E-02
RMM:   6    -0.979479330099E+02    0.25329E-05   -0.40093E-05  5209   0.257E-02
  22 F= -.97947933E+02 E0= -.97870530E+02  d E =-.886400E-03
 trial-energy change:   -0.000886  1 .order   -0.000995   -0.001431   -0.000558
 step:   7.5202(harm=  7.5202)  dis= 0.00432  next Energy=   -97.948220 (dE=-0.117E-02)
 bond charge predicted
       N       E                     dE             d eps       ncg     rms          rms(c)
DAV:   1    -0.979476252163E+02    0.31033E-03   -0.23156E-01  7230   0.124E+00    0.565E-02
RMM:   2    -0.979480749172E+02   -0.44970E-03   -0.33477E-03  7173   0.206E-01    0.100E-01
RMM:   3    -0.979482870932E+02   -0.21218E-03   -0.44273E-04  7440   0.859E-02    0.156E-01
RMM:   4    -0.979479333467E+02    0.35375E-03   -0.96995E-05  6859   0.306E-02    0.451E-02
RMM:   5    -0.979478999287E+02    0.33418E-04   -0.16085E-05  4016   0.174E-02    0.273E-02
RMM:   6    -0.979478964468E+02    0.34818E-05   -0.13485E-05  3934   0.170E-02
  23 F= -.97947896E+02 E0= -.97870573E+02  d E =-.849837E-03
 curvature:  -5.44 expect dE=-0.552E-03 dE for cont linesearch -0.528E-04
 trial: gam= 0.00000 g(F)=  0.102E-03 g(S)=  0.000E+00 ort =-0.662E-04 (trialstep = 0.517E+01)
 search vector abs. value=  0.102E-03
 bond charge predicted
       N       E                     dE             d eps       ncg     rms          rms(c)
DAV:   1    -0.979478864406E+02    0.13488E-04   -0.15519E-01  7140   0.108E+00    0.407E-02
RMM:   2    -0.979482174374E+02   -0.33100E-03   -0.25094E-03  7176   0.190E-01    0.791E-02
RMM:   3    -0.979483043454E+02   -0.86908E-04   -0.29293E-04  8301   0.673E-02    0.106E-01
RMM:   4    -0.979481585357E+02    0.14581E-03   -0.57726E-05  5937   0.241E-02    0.491E-02
RMM:   5    -0.979481226241E+02    0.35912E-04   -0.14934E-05  3974   0.172E-02    0.217E-02
RMM:   6    -0.979481199343E+02    0.26898E-05   -0.10373E-05  3813   0.158E-02
  24 F= -.97948120E+02 E0= -.97870802E+02  d E =-.223487E-03
 trial-energy change:   -0.000223  1 .order   -0.000276   -0.000525   -0.000027
 step:   5.4550(harm=  5.4550)  dis= 0.00231  next Energy=   -97.948173 (dE=-0.277E-03)
 bond charge predicted
       N       E                     dE             d eps       ncg     rms          rms(c)
DAV:   1    -0.979481122124E+02    0.10412E-04   -0.56407E-04  8070   0.719E-02    0.932E-03
RMM:   2    -0.979481208621E+02   -0.86496E-05   -0.20418E-05  3876   0.188E-02
  25 F= -.97948121E+02 E0= -.97870773E+02  d E =-.224415E-03
 curvature:  -2.73 expect dE=-0.599E-04 dE for cont linesearch -0.116E-05
 trial: gam= 0.28104 g(F)=  0.220E-04 g(S)=  0.000E+00 ort =-0.657E-05 (trialstep = 0.523E+01)
 search vector abs. value=  0.263E-04
 bond charge predicted
       N       E                     dE             d eps       ncg     rms          rms(c)
DAV:   1    -0.979481346871E+02   -0.22475E-04   -0.41350E-02  7545   0.529E-01    0.359E-02
RMM:   2    -0.979528019365E+02   -0.46672E-02   -0.13318E-03  7396   0.117E-01    0.534E-01
RMM:   3    -0.979482297598E+02    0.45722E-02   -0.43509E-04  7199   0.674E-02    0.259E-02
RMM:   4    -0.979481807944E+02    0.48965E-04   -0.53576E-05  5515   0.274E-02    0.189E-02
RMM:   5    -0.979481763743E+02    0.44200E-05   -0.11546E-05  4039   0.150E-02
  26 F= -.97948176E+02 E0= -.97870854E+02  d E =-.555123E-04
 trial-energy change:   -0.000056  1 .order   -0.000067   -0.000105   -0.000029
 step:   7.1859(harm=  7.1859)  dis= 0.00097  next Energy=   -97.948193 (dE=-0.723E-04)
 bond charge predicted
       N       E                     dE             d eps       ncg     rms          rms(c)
DAV:   1    -0.979481695050E+02    0.11289E-04   -0.58197E-03  7320   0.199E-01    0.129E-02
RMM:   2    -0.979482012903E+02   -0.31785E-04   -0.86813E-05  6878   0.397E-02    0.398E-02
RMM:   3    -0.979481976767E+02    0.36136E-05   -0.12993E-05  3959   0.142E-02
  27 F= -.97948198E+02 E0= -.97870908E+02  d E =-.768147E-04
 curvature:  -4.70 expect dE=-0.704E-04 dE for cont linesearch -0.594E-05
 trial: gam= 0.00000 g(F)=  0.150E-04 g(S)=  0.000E+00 ort =-0.577E-05 (trialstep = 0.562E+01)
 search vector abs. value=  0.150E-04
 reached required accuracy - stopping structural energy minimisation
 writing wavefunctions
