 vasp.5.4.1 05Feb16 (build Nov 22 2018 20:17:51) complex                        
  
 POSCAR found type information on POSCAR  Cu Ag
 02/POSCAR found :  2 types and      37 ions
 scaLAPACK will be used

 ----------------------------------------------------------------------------- 
|                                                                             |
|           W    W    AA    RRRRR   N    N  II  N    N   GGGG   !!!           |
|           W    W   A  A   R    R  NN   N  II  NN   N  G    G  !!!           |
|           W    W  A    A  R    R  N N  N  II  N N  N  G       !!!           |
|           W WW W  AAAAAA  RRRRR   N  N N  II  N  N N  G  GGG   !            |
|           WW  WW  A    A  R   R   N   NN  II  N   NN  G    G                |
|           W    W  A    A  R    R  N    N  II  N    N   GGGG   !!!           |
|                                                                             |
|      For optimal performance we recommend to set                            |
|        NCORE= 4 - approx SQRT( number of cores)                             |
|      NCORE specifies how many cores store one orbital (NPAR=cpu/NCORE).     |
|      This setting can  greatly improve the performance of VASP for DFT.     |
|      The default, NPAR=number of cores might be grossly inefficient         |
|      on modern multi-core architectures or massively parallel machines.     |
|      Do your own testing !!!!                                               |
|      Unfortunately you need to use the default for GW and RPA calculations. |
|      (for HF NCORE is supported but not extensively tested yet)             |
|                                                                             |
 ----------------------------------------------------------------------------- 

 LDA part: xc-table for Ceperly-Alder, standard interpolation
 POSCAR found type information on POSCAR  Cu Ag
 00/POSCAR found :  2 types and      37 ions
 POSCAR found type information on POSCAR  Cu Ag
 05/POSCAR found :  2 types and      37 ions
 Jacobian:    19.6723208379109     
 POSCAR, INCAR and KPOINTS ok, starting setup
 WARNING: small aliasing (wrap around) errors must be expected
 FFT: planning ...
 WAVECAR not read
 entering main loop
       N       E                     dE             d eps       ncg     rms          rms(c)
DAV:   1     0.307100219403E+04    0.30710E+04   -0.17815E+05  4500   0.175E+03
DAV:   2     0.166413188060E+03   -0.29046E+04   -0.27613E+04  4500   0.400E+02
DAV:   3    -0.144403799340E+03   -0.31082E+03   -0.29325E+03  4670   0.165E+02
DAV:   4    -0.155813819870E+03   -0.11410E+02   -0.11281E+02  4810   0.357E+01
DAV:   5    -0.155911574929E+03   -0.97755E-01   -0.97684E-01  4890   0.277E+00    0.397E+01
DAV:   6    -0.141082053846E+03    0.14830E+02   -0.31088E+02  4890   0.928E+01    0.200E+01
DAV:   7    -0.128282628913E+03    0.12799E+02   -0.60866E+01  5060   0.482E+01    0.293E+00
DAV:   8    -0.128847848986E+03   -0.56522E+00   -0.61934E+00  5260   0.361E+01    0.466E+00
DAV:   9    -0.128272745736E+03    0.57510E+00   -0.25243E+00  5670   0.279E+01    0.251E+00
DAV:  10    -0.128190526024E+03    0.82220E-01   -0.66636E-01  6090   0.926E+00    0.182E+00
DAV:  11    -0.128155530344E+03    0.34996E-01   -0.56936E-01  4760   0.620E+00    0.826E-01
DAV:  12    -0.128156560343E+03   -0.10300E-02   -0.11297E-01  4890   0.191E+00    0.589E-01
DAV:  13    -0.128150096246E+03    0.64641E-02   -0.35878E-02  4870   0.216E+00    0.393E-01
DAV:  14    -0.128145672076E+03    0.44242E-02   -0.13087E-02  4880   0.116E+00    0.208E-01
DAV:  15    -0.128141996669E+03    0.36754E-02   -0.12191E-02  4700   0.992E-01    0.185E-01
DAV:  16    -0.128139842404E+03    0.21543E-02   -0.59913E-03  4720   0.559E-01    0.802E-02
DAV:  17    -0.128139465346E+03    0.37706E-03   -0.18698E-03  4670   0.370E-01    0.699E-02
DAV:  18    -0.128140929589E+03   -0.14642E-02   -0.14480E-03  5090   0.719E-01    0.992E-02
DAV:  19    -0.128142185340E+03   -0.12558E-02   -0.45652E-03  6540   0.142E+00    0.710E-02
DAV:  20    -0.128143656123E+03   -0.14708E-02   -0.14730E-03  4680   0.182E-01    0.755E-02
DAV:  21    -0.128143668573E+03   -0.12451E-04   -0.70169E-04  4130   0.532E-01    0.351E-02
DAV:  22    -0.128144545531E+03   -0.87696E-03   -0.73358E-04  4700   0.123E-01    0.259E-02
DAV:  23    -0.128144632617E+03   -0.87086E-04   -0.62202E-05  4660   0.585E-02    0.178E-02
DAV:  24    -0.128144674599E+03   -0.41982E-04   -0.16638E-05  3150   0.649E-02    0.104E-02
DAV:  25    -0.128144709880E+03   -0.35281E-04   -0.50484E-05  2970   0.131E-01    0.797E-03
DAV:  26    -0.128144719281E+03   -0.94018E-05   -0.29477E-05  3600   0.347E-02
   1 F= -.12814472E+03 E0= -.12810528E+03  d E =-.128145E+03
quench:  g(F)=  0.000E+00 g(S)=  0.000E+00 dE (1.order)= 0.000E+00
 bond charge predicted
       N       E                     dE             d eps       ncg     rms          rms(c)
DAV:   1    -0.128146953821E+03   -0.22439E-02   -0.52773E-02  4720   0.469E-01    0.163E-02
DAV:   2    -0.128147038175E+03   -0.84354E-04   -0.35313E-04  5910   0.355E-01    0.348E-02
DAV:   3    -0.128146962563E+03    0.75612E-04   -0.20819E-04  5350   0.293E-01    0.832E-03
DAV:   4    -0.128146967593E+03   -0.50299E-05   -0.61939E-05  4670   0.448E-02
   2 F= -.12814697E+03 E0= -.12810750E+03  d E =-.224831E-02
quench:  g(F)=  0.000E+00 g(S)=  0.000E+00 dE (1.order)= 0.000E+00
 bond charge predicted
       N       E                     dE             d eps       ncg     rms          rms(c)
DAV:   1    -0.128162213517E+03   -0.15251E-01   -0.54713E+00  4500   0.478E+00    0.151E-01
DAV:   2    -0.128164391228E+03   -0.21777E-02   -0.27859E-02  4790   0.869E-01    0.139E-01
DAV:   3    -0.128164354888E+03    0.36339E-04   -0.41184E-03  4870   0.720E-01    0.827E-02
DAV:   4    -0.128164214650E+03    0.14024E-03   -0.58938E-04  4760   0.295E-01    0.412E-02
DAV:   5    -0.128164251305E+03   -0.36655E-04   -0.36228E-04  5240   0.391E-01    0.381E-02
DAV:   6    -0.128164196243E+03    0.55062E-04   -0.31194E-04  5680   0.390E-01    0.111E-02
DAV:   7    -0.128164184021E+03    0.12222E-04   -0.70911E-05  4310   0.132E-01    0.637E-03
DAV:   8    -0.128164187420E+03   -0.33987E-05   -0.51211E-05  4600   0.433E-02
   3 F= -.12816419E+03 E0= -.12812479E+03  d E =-.172198E-01
quench:  g(F)=  0.000E+00 g(S)=  0.000E+00 dE (1.order)= 0.000E+00
 bond charge predicted
       N       E                     dE             d eps       ncg     rms          rms(c)
DAV:   1    -0.128174456544E+03   -0.10273E-01   -0.14048E+01  4500   0.791E+00    0.234E-01
DAV:   2    -0.128178160964E+03   -0.37044E-02   -0.51761E-02  4750   0.129E+00    0.218E-01
DAV:   3    -0.128177934373E+03    0.22659E-03   -0.85816E-03  4840   0.110E+00    0.133E-01
DAV:   4    -0.128177658130E+03    0.27624E-03   -0.16368E-03  5840   0.650E-01    0.618E-02
DAV:   5    -0.128177680624E+03   -0.22494E-04   -0.20116E-03  4990   0.999E-01    0.727E-02
DAV:   6    -0.128177426487E+03    0.25414E-03   -0.65948E-04  5090   0.530E-01    0.120E-02
DAV:   7    -0.128177449646E+03   -0.23159E-04   -0.29696E-04  4930   0.804E-02    0.128E-02
DAV:   8    -0.128177452007E+03   -0.23610E-05   -0.64407E-05  4500   0.512E-02
   4 F= -.12817745E+03 E0= -.12813794E+03  d E =-.132646E-01
quench:  g(F)=  0.000E+00 g(S)=  0.000E+00 dE (1.order)= 0.000E+00
 bond charge predicted
       N       E                     dE             d eps       ncg     rms          rms(c)
DAV:   1    -0.128182466255E+03   -0.50166E-02   -0.65067E+00  4500   0.541E+00    0.147E-01
DAV:   2    -0.128183711060E+03   -0.12448E-02   -0.18568E-02  4710   0.592E-01    0.110E-01
DAV:   3    -0.128183609469E+03    0.10159E-03   -0.21829E-03  4940   0.584E-01    0.960E-02
DAV:   4    -0.128183437840E+03    0.17163E-03   -0.83285E-04  5170   0.572E-01    0.330E-02
DAV:   5    -0.128183460729E+03   -0.22889E-04   -0.68395E-04  7120   0.555E-01    0.357E-02
DAV:   6    -0.128183382918E+03    0.77811E-04   -0.22492E-04  6340   0.294E-01    0.835E-03
DAV:   7    -0.128183386189E+03   -0.32717E-05   -0.63133E-05  4720   0.365E-02
   5 F= -.12818339E+03 E0= -.12814367E+03  d E =-.593418E-02
quench:  g(F)=  0.000E+00 g(S)=  0.000E+00 dE (1.order)= 0.000E+00
 bond charge predicted
       N       E                     dE             d eps       ncg     rms          rms(c)
DAV:   1    -0.128184108288E+03   -0.72537E-03   -0.14412E+01  4500   0.780E+00    0.210E-01
DAV:   2    -0.128188963749E+03   -0.48555E-02   -0.62473E-02  4600   0.909E-01    0.154E-01
DAV:   3    -0.128188853597E+03    0.11015E-03   -0.45987E-03  4600   0.633E-01    0.114E-01
DAV:   4    -0.128188769568E+03    0.84029E-04   -0.15949E-03  4720   0.821E-01    0.894E-02
DAV:   5    -0.128188757040E+03    0.12527E-04   -0.17426E-03  5150   0.978E-01    0.773E-02
DAV:   6    -0.128188462346E+03    0.29469E-03   -0.99486E-04  7870   0.591E-01    0.143E-02
DAV:   7    -0.128188475545E+03   -0.13199E-04   -0.24439E-04  5440   0.101E-01    0.111E-02
DAV:   8    -0.128188474928E+03    0.61751E-06   -0.41882E-05  4550   0.524E-02
   6 F= -.12818847E+03 E0= -.12814867E+03  d E =-.508874E-02
quench:  g(F)=  0.000E+00 g(S)=  0.000E+00 dE (1.order)= 0.000E+00
 bond charge predicted
       N       E                     dE             d eps       ncg     rms          rms(c)
DAV:   1    -0.128188063664E+03    0.41188E-03   -0.35427E+00  4580   0.334E+00    0.844E-02
DAV:   2    -0.128190009529E+03   -0.19459E-02   -0.21314E-02  5000   0.488E-01    0.771E-02
DAV:   3    -0.128190015547E+03   -0.60187E-05   -0.13275E-03  4830   0.404E-01    0.549E-02
DAV:   4    -0.128189988215E+03    0.27333E-04   -0.28654E-04  4920   0.339E-01    0.449E-02
DAV:   5    -0.128189952429E+03    0.35785E-04   -0.18586E-04  5380   0.294E-01    0.339E-02
DAV:   6    -0.128189912406E+03    0.40024E-04   -0.20568E-04  6440   0.174E-01    0.101E-02
DAV:   7    -0.128189915676E+03   -0.32702E-05   -0.54755E-05  4670   0.485E-02
   7 F= -.12818992E+03 E0= -.12814999E+03  d E =-.144075E-02
quench:  g(F)=  0.000E+00 g(S)=  0.000E+00 dE (1.order)= 0.000E+00
 bond charge predicted
       N       E                     dE             d eps       ncg     rms          rms(c)
DAV:   1    -0.128190014123E+03   -0.10172E-03   -0.19597E-01  4550   0.933E-01    0.280E-02
DAV:   2    -0.128190069224E+03   -0.55102E-04   -0.75320E-04  4840   0.156E-01    0.254E-02
DAV:   3    -0.128190069839E+03   -0.61464E-06   -0.15529E-04  4790   0.143E-01    0.166E-02
DAV:   4    -0.128190068993E+03    0.84625E-06   -0.34175E-05  3160   0.119E-01
   8 F= -.12819007E+03 E0= -.12815015E+03  d E =-.153317E-03
quench:  g(F)=  0.000E+00 g(S)=  0.000E+00 dE (1.order)= 0.000E+00
 bond charge predicted
       N       E                     dE             d eps       ncg     rms          rms(c)
DAV:   1    -0.128190267395E+03   -0.19756E-03   -0.30114E-01  4620   0.105E+00    0.291E-02
DAV:   2    -0.128190420579E+03   -0.15318E-03   -0.15024E-03  5960   0.281E-01    0.330E-02
DAV:   3    -0.128190407022E+03    0.13556E-04   -0.32139E-04  4770   0.303E-01    0.225E-02
DAV:   4    -0.128190397184E+03    0.98389E-05   -0.76680E-05  4640   0.125E-01
   9 F= -.12819040E+03 E0= -.12815054E+03  d E =-.328191E-03
quench:  g(F)=  0.000E+00 g(S)=  0.000E+00 dE (1.order)= 0.000E+00
 bond charge predicted
       N       E                     dE             d eps       ncg     rms          rms(c)
DAV:   1    -0.128190477753E+03   -0.70731E-04   -0.10297E+00  4500   0.180E+00    0.438E-02
DAV:   2    -0.128191018259E+03   -0.54051E-03   -0.57852E-03  5080   0.216E-01    0.383E-02
DAV:   3    -0.128191012105E+03    0.61546E-05   -0.25700E-04  4870   0.206E-01    0.325E-02
DAV:   4    -0.128190997825E+03    0.14279E-04   -0.69882E-05  4260   0.181E-01    0.246E-02
DAV:   5    -0.128190985084E+03    0.12742E-04   -0.62037E-05  3980   0.152E-01    0.174E-02
DAV:   6    -0.128190975559E+03    0.95248E-05   -0.73568E-05  5490   0.107E-01
  10 F= -.12819098E+03 E0= -.12815121E+03  d E =-.578375E-03
quench:  g(F)=  0.000E+00 g(S)=  0.000E+00 dE (1.order)= 0.000E+00
 bond charge predicted
       N       E                     dE             d eps       ncg     rms          rms(c)
DAV:   1    -0.128190503712E+03    0.48137E-03   -0.29083E+00  4500   0.302E+00    0.706E-02
DAV:   2    -0.128192012220E+03   -0.15085E-02   -0.16258E-02  4650   0.346E-01    0.596E-02
DAV:   3    -0.128191978076E+03    0.34143E-04   -0.57024E-04  4780   0.210E-01    0.446E-02
DAV:   4    -0.128191949213E+03    0.28864E-04   -0.95986E-05  4950   0.168E-01    0.352E-02
DAV:   5    -0.128191969198E+03   -0.19985E-04   -0.20643E-04  5550   0.321E-01    0.350E-02
DAV:   6    -0.128191904406E+03    0.64791E-04   -0.17742E-04  5550   0.274E-01    0.753E-03
DAV:   7    -0.128191908506E+03   -0.41000E-05   -0.63961E-05  4910   0.483E-02
  11 F= -.12819191E+03 E0= -.12815216E+03  d E =-.932948E-03
quench:  g(F)=  0.000E+00 g(S)=  0.000E+00 dE (1.order)= 0.000E+00
 bond charge predicted
       N       E                     dE             d eps       ncg     rms          rms(c)
DAV:   1    -0.127990336174E+03    0.20157E+00   -0.24662E+02  4500   0.340E+01    0.105E+00
DAV:   2    -0.128100745170E+03   -0.11041E+00   -0.13806E+00  4740   0.659E+00    0.108E+00
DAV:   3    -0.128092500160E+03    0.82450E-02   -0.17397E-01  4950   0.553E+00    0.544E-01
DAV:   4    -0.128099239010E+03   -0.67389E-02   -0.57741E-02  6440   0.485E+00    0.503E-01
DAV:   5    -0.128083734671E+03    0.15504E-01   -0.49428E-02  5200   0.489E+00    0.285E-01
DAV:   6    -0.128083135020E+03    0.59965E-03   -0.20589E-02  6350   0.153E+00    0.133E-01
DAV:   7    -0.128083038146E+03    0.96874E-04   -0.54167E-03  4880   0.667E-01    0.535E-02
DAV:   8    -0.128083164921E+03   -0.12677E-03   -0.22520E-03  4680   0.302E-01    0.499E-02
DAV:   9    -0.128083131921E+03    0.33000E-04   -0.48176E-04  4800   0.204E-01    0.229E-02
DAV:  10    -0.128083125570E+03    0.63507E-05   -0.61529E-05  4660   0.123E-01
  12 F= -.12808313E+03 E0= -.12804135E+03  d E =0.108783E+00
quench:  g(F)=  0.000E+00 g(S)=  0.000E+00 dE (1.order)= 0.000E+00
 bond charge predicted
       N       E                     dE             d eps       ncg     rms          rms(c)
DAV:   1    -0.128148125523E+03   -0.64994E-01   -0.72525E+01  4500   0.184E+01    0.545E-01
DAV:   2    -0.128177652869E+03   -0.29527E-01   -0.35878E-01  4790   0.357E+00    0.554E-01
DAV:   3    -0.128178056854E+03   -0.40398E-03   -0.62454E-02  4820   0.355E+00    0.341E-01
DAV:   4    -0.128178935689E+03   -0.87884E-03   -0.22554E-02  4920   0.324E+00    0.298E-01
DAV:   5    -0.128174373075E+03    0.45626E-02   -0.10876E-02  5200   0.233E+00    0.839E-02
DAV:   6    -0.128174619896E+03   -0.24682E-03   -0.55235E-03  4990   0.542E-01    0.511E-02
DAV:   7    -0.128174717818E+03   -0.97921E-04   -0.15911E-03  4820   0.264E-01    0.390E-02
DAV:   8    -0.128174705474E+03    0.12344E-04   -0.23156E-04  4750   0.109E-01    0.306E-02
DAV:   9    -0.128174680522E+03    0.24952E-04   -0.89838E-05  4650   0.120E-01    0.126E-02
DAV:  10    -0.128174680482E+03    0.40047E-07   -0.33584E-05  3350   0.598E-02
  13 F= -.12817468E+03 E0= -.12813408E+03  d E =-.915549E-01
quench:  g(F)=  0.000E+00 g(S)=  0.000E+00 dE (1.order)= 0.000E+00
 bond charge predicted
       N       E                     dE             d eps       ncg     rms          rms(c)
DAV:   1    -0.128182980341E+03   -0.82998E-02   -0.80939E+00  4500   0.612E+00    0.182E-01
DAV:   2    -0.128185534536E+03   -0.25542E-02   -0.33141E-02  4690   0.104E+00    0.168E-01
DAV:   3    -0.128185608691E+03   -0.74155E-04   -0.63924E-03  4850   0.107E+00    0.120E-01
DAV:   4    -0.128185709238E+03   -0.10055E-03   -0.26507E-03  4950   0.111E+00    0.108E-01
DAV:   5    -0.128185198961E+03    0.51028E-03   -0.13492E-03  5920   0.837E-01    0.238E-02
DAV:   6    -0.128185207145E+03   -0.81842E-05   -0.56139E-04  6710   0.226E-01    0.132E-02
DAV:   7    -0.128185212245E+03   -0.50998E-05   -0.19468E-04  4750   0.111E-01    0.119E-02
DAV:   8    -0.128185214096E+03   -0.18510E-05   -0.43644E-05  4330   0.398E-02
  14 F= -.12818521E+03 E0= -.12814514E+03  d E =-.105336E-01
quench:  g(F)=  0.000E+00 g(S)=  0.000E+00 dE (1.order)= 0.000E+00
 bond charge predicted
       N       E                     dE             d eps       ncg     rms          rms(c)
DAV:   1    -0.128189607588E+03   -0.43953E-02   -0.10726E+01  4500   0.704E+00    0.228E-01
DAV:   2    -0.128192053448E+03   -0.24459E-02   -0.36345E-02  4760   0.143E+00    0.225E-01
DAV:   3    -0.128191821986E+03    0.23146E-03   -0.97904E-03  4750   0.129E+00    0.128E-01
DAV:   4    -0.128192411590E+03   -0.58960E-03   -0.39959E-03  4850   0.138E+00    0.147E-01
DAV:   5    -0.128191361271E+03    0.10503E-02   -0.24301E-03  5870   0.108E+00    0.339E-02
DAV:   6    -0.128191405043E+03   -0.43772E-04   -0.89697E-04  5060   0.213E-01    0.180E-02
DAV:   7    -0.128191413466E+03   -0.84236E-05   -0.24544E-04  4670   0.118E-01    0.132E-02
DAV:   8    -0.128191411877E+03    0.15894E-05   -0.31986E-05  3820   0.473E-02
  15 F= -.12819141E+03 E0= -.12815190E+03  d E =-.619778E-02
quench:  g(F)=  0.000E+00 g(S)=  0.000E+00 dE (1.order)= 0.000E+00
 bond charge predicted
       N       E                     dE             d eps       ncg     rms          rms(c)
DAV:   1    -0.128191460117E+03   -0.46651E-04   -0.38866E+00  4670   0.381E+00    0.104E-01
DAV:   2    -0.128193299881E+03   -0.18398E-02   -0.20816E-02  5220   0.680E-01    0.105E-01
DAV:   3    -0.128193274681E+03    0.25200E-04   -0.22559E-03  4640   0.543E-01    0.642E-02
DAV:   4    -0.128193250394E+03    0.24287E-04   -0.44148E-04  4810   0.405E-01    0.515E-02
DAV:   5    -0.128193213364E+03    0.37030E-04   -0.39985E-04  5180   0.445E-01    0.368E-02
DAV:   6    -0.128193163712E+03    0.49652E-04   -0.28027E-04  7080   0.265E-01    0.107E-02
DAV:   7    -0.128193161576E+03    0.21360E-05   -0.96122E-05  4720   0.832E-02
  16 F= -.12819316E+03 E0= -.12815357E+03  d E =-.174970E-02
quench:  g(F)=  0.000E+00 g(S)=  0.000E+00 dE (1.order)= 0.000E+00
 bond charge predicted
       N       E                     dE             d eps       ncg     rms          rms(c)
DAV:   1    -0.128190572487E+03    0.25912E-02   -0.47199E+00  4500   0.407E+00    0.105E-01
DAV:   2    -0.128192990307E+03   -0.24178E-02   -0.26493E-02  5270   0.677E-01    0.106E-01
DAV:   3    -0.128192970047E+03    0.20259E-04   -0.22567E-03  4690   0.532E-01    0.670E-02
DAV:   4    -0.128192937004E+03    0.33043E-04   -0.43158E-04  4910   0.391E-01    0.533E-02
DAV:   5    -0.128192909711E+03    0.27293E-04   -0.37882E-04  5410   0.436E-01    0.430E-02
DAV:   6    -0.128192844554E+03    0.65157E-04   -0.31510E-04  6990   0.274E-01    0.129E-02
DAV:   7    -0.128192843145E+03    0.14088E-05   -0.10216E-04  4690   0.837E-02    0.777E-03
DAV:   8    -0.128192843960E+03   -0.81545E-06   -0.35125E-05  4080   0.340E-02
  17 F= -.12819284E+03 E0= -.12815307E+03  d E =0.317616E-03
quench:  g(F)=  0.000E+00 g(S)=  0.000E+00 dE (1.order)= 0.000E+00
 bond charge predicted
       N       E                     dE             d eps       ncg     rms          rms(c)
DAV:   1    -0.128192394154E+03    0.44899E-03   -0.56017E-01  4520   0.149E+00    0.425E-02
DAV:   2    -0.128192607893E+03   -0.21374E-03   -0.25753E-03  5720   0.267E-01    0.424E-02
DAV:   3    -0.128192599205E+03    0.86875E-05   -0.33527E-04  4770   0.208E-01    0.242E-02
DAV:   4    -0.128192589085E+03    0.10120E-04   -0.48172E-05  4670   0.110E-01    0.163E-02
DAV:   5    -0.128192597476E+03   -0.83905E-05   -0.79830E-05  4060   0.201E-01
  18 F= -.12819260E+03 E0= -.12815279E+03  d E =0.246485E-03
quench:  g(F)=  0.000E+00 g(S)=  0.000E+00 dE (1.order)= 0.000E+00
 bond charge predicted
       N       E                     dE             d eps       ncg     rms          rms(c)
DAV:   1    -0.128192544111E+03    0.44974E-04   -0.31392E-01  4520   0.114E+00    0.322E-02
DAV:   2    -0.128192686527E+03   -0.14242E-03   -0.17514E-03  4620   0.176E-01    0.267E-02
DAV:   3    -0.128192690846E+03   -0.43185E-05   -0.19337E-04  4590   0.155E-01    0.196E-02
DAV:   4    -0.128192689403E+03    0.14433E-05   -0.63826E-05  4450   0.154E-01
  19 F= -.12819269E+03 E0= -.12815283E+03  d E =-.919267E-04
quench:  g(F)=  0.000E+00 g(S)=  0.000E+00 dE (1.order)= 0.000E+00
 bond charge predicted
       N       E                     dE             d eps       ncg     rms          rms(c)
DAV:   1    -0.128192915564E+03   -0.22472E-03   -0.19424E-01  4540   0.862E-01    0.255E-02
DAV:   2    -0.128193017137E+03   -0.10157E-03   -0.98509E-04  5820   0.255E-01    0.285E-02
DAV:   3    -0.128193003872E+03    0.13266E-04   -0.25484E-04  4640   0.274E-01    0.197E-02
DAV:   4    -0.128192997309E+03    0.65624E-05   -0.64113E-05  4550   0.111E-01
  20 F= -.12819300E+03 E0= -.12815319E+03  d E =-.307907E-03
quench:  g(F)=  0.000E+00 g(S)=  0.000E+00 dE (1.order)= 0.000E+00
 bond charge predicted
       N       E                     dE             d eps       ncg     rms          rms(c)
DAV:   1    -0.128193141519E+03   -0.13765E-03   -0.17201E-01  4680   0.748E-01    0.213E-02
DAV:   2    -0.128193235533E+03   -0.94015E-04   -0.10546E-03  4740   0.111E-01    0.186E-02
DAV:   3    -0.128193235179E+03    0.35390E-06   -0.69311E-05  4820   0.848E-02
  21 F= -.12819324E+03 E0= -.12815345E+03  d E =-.237870E-03
quench:  g(F)=  0.000E+00 g(S)=  0.000E+00 dE (1.order)= 0.000E+00
 bond charge predicted
       N       E                     dE             d eps       ncg     rms          rms(c)
DAV:   1    -0.128193388783E+03   -0.15325E-03   -0.28442E-01  4580   0.936E-01    0.261E-02
DAV:   2    -0.128193545765E+03   -0.15698E-03   -0.16017E-03  6280   0.222E-01    0.292E-02
DAV:   3    -0.128193538905E+03    0.68607E-05   -0.20255E-04  4920   0.232E-01    0.214E-02
DAV:   4    -0.128193530598E+03    0.83069E-05   -0.46079E-05  4400   0.103E-01
  22 F= -.12819353E+03 E0= -.12815373E+03  d E =-.295418E-03
quench:  g(F)=  0.000E+00 g(S)=  0.000E+00 dE (1.order)= 0.000E+00
 bond charge predicted
       N       E                     dE             d eps       ncg     rms          rms(c)
DAV:   1    -0.128193587962E+03   -0.49057E-04   -0.93833E-01  4540   0.160E+00    0.369E-02
DAV:   2    -0.128194130977E+03   -0.54302E-03   -0.57013E-03  4780   0.194E-01    0.327E-02
DAV:   3    -0.128194122574E+03    0.84033E-05   -0.16136E-04  4850   0.102E-01    0.256E-02
DAV:   4    -0.128194115907E+03    0.66672E-05   -0.25272E-05  3090   0.100E-01
  23 F= -.12819412E+03 E0= -.12815428E+03  d E =-.585309E-03
quench:  g(F)=  0.000E+00 g(S)=  0.000E+00 dE (1.order)= 0.000E+00
 bond charge predicted
       N       E                     dE             d eps       ncg     rms          rms(c)
DAV:   1    -0.128173574226E+03    0.20548E-01   -0.39613E+01  4500   0.101E+01    0.239E-01
DAV:   2    -0.128198759857E+03   -0.25186E-01   -0.26549E-01  4730   0.129E+00    0.223E-01
DAV:   3    -0.128198445609E+03    0.31425E-03   -0.88125E-03  4740   0.847E-01    0.166E-01
DAV:   4    -0.128198228444E+03    0.21717E-03   -0.14334E-03  4830   0.764E-01    0.145E-01
DAV:   5    -0.128197771303E+03    0.45714E-03   -0.11343E-03  6930   0.613E-01    0.103E-01
DAV:   6    -0.128197413531E+03    0.35777E-03   -0.16130E-03  6910   0.482E-01    0.333E-02
DAV:   7    -0.128197431741E+03   -0.18211E-04   -0.52072E-04  5250   0.196E-01    0.213E-02
DAV:   8    -0.128197425405E+03    0.63368E-05   -0.93250E-05  4760   0.782E-02
  24 F= -.12819743E+03 E0= -.12815785E+03  d E =-.330950E-02
quench:  g(F)=  0.000E+00 g(S)=  0.000E+00 dE (1.order)= 0.000E+00
 bond charge predicted
       N       E                     dE             d eps       ncg     rms          rms(c)
DAV:   1    -0.128197487006E+03   -0.55264E-04   -0.21708E+00  4500   0.317E+00    0.984E-02
DAV:   2    -0.128197924540E+03   -0.43753E-03   -0.67472E-03  4650   0.505E-01    0.876E-02
DAV:   3    -0.128197908192E+03    0.16348E-04   -0.16313E-03  4730   0.467E-01    0.597E-02
DAV:   4    -0.128197825786E+03    0.82406E-04   -0.31268E-04  5840   0.186E-01    0.242E-02
DAV:   5    -0.128197830393E+03   -0.46076E-05   -0.12368E-04  4710   0.223E-01    0.145E-02
DAV:   6    -0.128197818470E+03    0.11924E-04   -0.43037E-05  3040   0.136E-01    0.764E-03
DAV:   7    -0.128197818072E+03    0.39757E-06   -0.21038E-05  2960   0.443E-02
  25 F= -.12819782E+03 E0= -.12815803E+03  d E =-.392668E-03
quench:  g(F)=  0.000E+00 g(S)=  0.000E+00 dE (1.order)= 0.000E+00
 bond charge predicted
       N       E                     dE             d eps       ncg     rms          rms(c)
DAV:   1    -0.128187507741E+03    0.10311E-01   -0.13946E+01  4500   0.588E+00    0.125E-01
DAV:   2    -0.128196227199E+03   -0.87195E-02   -0.90066E-02  4760   0.669E-01    0.115E-01
DAV:   3    -0.128196062321E+03    0.16488E-03   -0.17027E-03  4740   0.231E-01    0.887E-02
DAV:   4    -0.128195941265E+03    0.12106E-03   -0.21666E-04  5170   0.214E-01    0.747E-02
DAV:   5    -0.128195743011E+03    0.19825E-03   -0.46651E-04  6180   0.151E-01    0.188E-02
DAV:   6    -0.128195743121E+03   -0.11032E-06   -0.10832E-04  5360   0.931E-02    0.131E-02
DAV:   7    -0.128195742283E+03    0.83834E-06   -0.30203E-05  3460   0.977E-02
  26 F= -.12819574E+03 E0= -.12815595E+03  d E =0.207579E-02
quench:  g(F)=  0.000E+00 g(S)=  0.000E+00 dE (1.order)= 0.000E+00
 bond charge predicted
       N       E                     dE             d eps       ncg     rms          rms(c)
DAV:   1    -0.128077805156E+03    0.11794E+00   -0.15378E+02  4500   0.195E+01    0.494E-01
DAV:   2    -0.128191452336E+03   -0.11365E+00   -0.11982E+00  4750   0.267E+00    0.459E-01
DAV:   3    -0.128189603731E+03    0.18486E-02   -0.38141E-02  4770   0.148E+00    0.308E-01
DAV:   4    -0.128188809252E+03    0.79448E-03   -0.50808E-03  4850   0.102E+00    0.270E-01
DAV:   5    -0.128187797775E+03    0.10115E-02   -0.25554E-03  5270   0.102E+00    0.219E-01
DAV:   6    -0.128186207445E+03    0.15903E-02   -0.45101E-03  7030   0.836E-01    0.931E-02
DAV:   7    -0.128186040199E+03    0.16725E-03   -0.26233E-03  6080   0.435E-01    0.335E-02
DAV:   8    -0.128186074579E+03   -0.34380E-04   -0.63564E-04  4680   0.173E-01    0.289E-02
DAV:   9    -0.128186063731E+03    0.10848E-04   -0.12400E-04  4800   0.103E-01    0.164E-02
DAV:  10    -0.128186062572E+03    0.11598E-05   -0.65290E-05  4770   0.554E-02
  27 F= -.12818606E+03 E0= -.12814617E+03  d E =0.967971E-02
quench:  g(F)=  0.000E+00 g(S)=  0.000E+00 dE (1.order)= 0.000E+00
 bond charge predicted
       N       E                     dE             d eps       ncg     rms          rms(c)
DAV:   1    -0.128181857634E+03    0.42061E-02   -0.65193E+00  4500   0.523E+00    0.151E-01
DAV:   2    -0.128184989782E+03   -0.31321E-02   -0.35858E-02  4550   0.855E-01    0.135E-01
DAV:   3    -0.128185032648E+03   -0.42866E-04   -0.39866E-03  4810   0.730E-01    0.932E-02
DAV:   4    -0.128184975310E+03    0.57339E-04   -0.81972E-04  4790   0.603E-01    0.624E-02
DAV:   5    -0.128184930565E+03    0.44745E-04   -0.88868E-04  5180   0.701E-01    0.484E-02
DAV:   6    -0.128184811880E+03    0.11868E-03   -0.37099E-04  7270   0.348E-01    0.878E-03
DAV:   7    -0.128184821354E+03   -0.94733E-05   -0.13150E-04  4740   0.588E-02    0.785E-03
DAV:   8    -0.128184820985E+03    0.36912E-06   -0.15245E-05  2680   0.289E-02
  28 F= -.12818482E+03 E0= -.12814533E+03  d E =0.124159E-02
quench:  g(F)=  0.000E+00 g(S)=  0.000E+00 dE (1.order)= 0.000E+00
 bond charge predicted
       N       E                     dE             d eps       ncg     rms          rms(c)
DAV:   1    -0.128084023107E+03    0.10080E+00   -0.13775E+02  4500   0.184E+01    0.456E-01
DAV:   2    -0.128183886790E+03   -0.99864E-01   -0.10529E+00  4760   0.233E+00    0.425E-01
DAV:   3    -0.128182038967E+03    0.18478E-02   -0.29166E-02  4670   0.105E+00    0.287E-01
DAV:   4    -0.128181218984E+03    0.81998E-03   -0.34543E-03  5000   0.784E-01    0.249E-01
DAV:   5    -0.128180390568E+03    0.82842E-03   -0.23555E-03  5250   0.102E+00    0.199E-01
DAV:   6    -0.128179095050E+03    0.12955E-02   -0.40425E-03  7210   0.935E-01    0.919E-02
DAV:   7    -0.128178907380E+03    0.18767E-03   -0.23427E-03  6220   0.465E-01    0.316E-02
DAV:   8    -0.128178941400E+03   -0.34020E-04   -0.60127E-04  4650   0.139E-01    0.279E-02
DAV:   9    -0.128178928591E+03    0.12809E-04   -0.10864E-04  4810   0.967E-02    0.150E-02
DAV:  10    -0.128178926793E+03    0.17971E-05   -0.41303E-05  4010   0.432E-02
  29 F= -.12817893E+03 E0= -.12813931E+03  d E =0.589419E-02
quench:  g(F)=  0.000E+00 g(S)=  0.000E+00 dE (1.order)= 0.000E+00
 bond charge predicted
       N       E                     dE             d eps       ncg     rms          rms(c)
DAV:   1    -0.128141121494E+03    0.37807E-01   -0.63161E+01  4500   0.135E+01    0.371E-01
DAV:   2    -0.128182978275E+03   -0.41857E-01   -0.45602E-01  4700   0.192E+00    0.314E-01
DAV:   3    -0.128182572271E+03    0.40600E-03   -0.20247E-02  4780   0.106E+00    0.206E-01
DAV:   4    -0.128182006831E+03    0.56544E-03   -0.24505E-03  4810   0.700E-01    0.170E-01
DAV:   5    -0.128181590295E+03    0.41654E-03   -0.22714E-03  5700   0.921E-01    0.115E-01
DAV:   6    -0.128181351233E+03    0.23906E-03   -0.29801E-03  6480   0.117E+00    0.586E-02
DAV:   7    -0.128181117960E+03    0.23327E-03   -0.11530E-03  7550   0.570E-01    0.212E-02
DAV:   8    -0.128181128349E+03   -0.10390E-04   -0.35355E-04  4870   0.116E-01    0.185E-02
DAV:   9    -0.128181122977E+03    0.53726E-05   -0.76581E-05  4730   0.534E-02
  30 F= -.12818112E+03 E0= -.12814059E+03  d E =-.219618E-02
quench:  g(F)=  0.000E+00 g(S)=  0.000E+00 dE (1.order)= 0.000E+00
 bond charge predicted
       N       E                     dE             d eps       ncg     rms          rms(c)
DAV:   1    -0.128181716768E+03   -0.58842E-03   -0.80955E+00  4500   0.607E+00    0.184E-01
DAV:   2    -0.128184927107E+03   -0.32103E-02   -0.39540E-02  4680   0.104E+00    0.163E-01
DAV:   3    -0.128185044974E+03   -0.11787E-03   -0.61000E-03  4670   0.104E+00    0.119E-01
DAV:   4    -0.128185114505E+03   -0.69531E-04   -0.21339E-03  4880   0.103E+00    0.924E-02
DAV:   5    -0.128184681346E+03    0.43316E-03   -0.12406E-03  5310   0.825E-01    0.309E-02
DAV:   6    -0.128184667418E+03    0.13928E-04   -0.47219E-04  6800   0.234E-01    0.103E-02
DAV:   7    -0.128184677666E+03   -0.10248E-04   -0.16192E-04  4790   0.813E-02    0.954E-03
DAV:   8    -0.128184677842E+03   -0.17607E-06   -0.21633E-05  2930   0.322E-02
  31 F= -.12818468E+03 E0= -.12814503E+03  d E =-.355487E-02
quench:  g(F)=  0.000E+00 g(S)=  0.000E+00 dE (1.order)= 0.000E+00
 bond charge predicted
       N       E                     dE             d eps       ncg     rms          rms(c)
DAV:   1    -0.128183859260E+03    0.81841E-03   -0.19128E+00  4560   0.239E+00    0.593E-02
DAV:   2    -0.128184990016E+03   -0.11308E-02   -0.12095E-02  4820   0.326E-01    0.496E-02
DAV:   3    -0.128184995536E+03   -0.55201E-05   -0.57694E-04  4890   0.267E-01    0.396E-02
DAV:   4    -0.128184978937E+03    0.16599E-04   -0.12296E-04  4890   0.228E-01    0.302E-02
DAV:   5    -0.128184964826E+03    0.14110E-04   -0.80809E-05  3830   0.196E-01    0.235E-02
DAV:   6    -0.128184944151E+03    0.20675E-04   -0.97774E-05  5360   0.132E-01    0.897E-03
DAV:   7    -0.128184945208E+03   -0.10565E-05   -0.27737E-05  3710   0.320E-02
  32 F= -.12818495E+03 E0= -.12814505E+03  d E =-.267366E-03
quench:  g(F)=  0.000E+00 g(S)=  0.000E+00 dE (1.order)= 0.000E+00
 bond charge predicted
       N       E                     dE             d eps       ncg     rms          rms(c)
DAV:   1    -0.128183910297E+03    0.10339E-02   -0.11380E+00  4500   0.156E+00    0.338E-02
DAV:   2    -0.128184620254E+03   -0.70996E-03   -0.73114E-03  4540   0.183E-01    0.301E-02
DAV:   3    -0.128184612376E+03    0.78777E-05   -0.15397E-04  4800   0.687E-02    0.232E-02
DAV:   4    -0.128184605955E+03    0.64218E-05   -0.10782E-05  2810   0.431E-02
  33 F= -.12818461E+03 E0= -.12814467E+03  d E =0.339253E-03
quench:  g(F)=  0.000E+00 g(S)=  0.000E+00 dE (1.order)= 0.000E+00
 bond charge predicted
       N       E                     dE             d eps       ncg     rms          rms(c)
DAV:   1    -0.127571379638E+03    0.61323E+00   -0.63311E+02  4500   0.418E+01    0.127E+00
DAV:   2    -0.128167676582E+03   -0.59630E+00   -0.65217E+00  4770   0.705E+00    0.103E+00
DAV:   3    -0.128173547427E+03   -0.58708E-02   -0.33845E-01  4920   0.439E+00    0.671E-01
DAV:   4    -0.128169479885E+03    0.40675E-02   -0.40925E-02  4960   0.324E+00    0.560E-01
DAV:   5    -0.128164409642E+03    0.50702E-02   -0.11049E-02  5010   0.145E+00    0.443E-01
DAV:   6    -0.128159513524E+03    0.48961E-02   -0.16715E-02  5570   0.118E+00    0.237E-01
DAV:   7    -0.128158460845E+03    0.10527E-02   -0.10177E-02  5740   0.973E-01    0.745E-02
DAV:   8    -0.128158506409E+03   -0.45563E-04   -0.18692E-03  4720   0.294E-01    0.517E-02
DAV:   9    -0.128158491263E+03    0.15145E-04   -0.50191E-04  4610   0.214E-01    0.336E-02
DAV:  10    -0.128158484896E+03    0.63674E-05   -0.11937E-04  5140   0.987E-02    0.160E-02
DAV:  11    -0.128158496928E+03   -0.12032E-04   -0.53361E-05  4750   0.564E-02    0.863E-03
DAV:  12    -0.128158503708E+03   -0.67797E-05   -0.22546E-05  3390   0.294E-02
  34 F= -.12815850E+03 E0= -.12811887E+03  d E =0.261022E-01
quench:  g(F)=  0.000E+00 g(S)=  0.000E+00 dE (1.order)= 0.000E+00
 bond charge predicted
       N       E                     dE             d eps       ncg     rms          rms(c)
DAV:   1    -0.127562188653E+03    0.59631E+00   -0.59399E+02  4500   0.434E+01    0.113E+00
DAV:   2    -0.128131808323E+03   -0.56962E+00   -0.60192E+00  4930   0.703E+00    0.113E+00
DAV:   3    -0.128121044855E+03    0.10763E-01   -0.20960E-01  4790   0.431E+00    0.670E-01
DAV:   4    -0.128117138138E+03    0.39067E-02   -0.34754E-02  4990   0.275E+00    0.584E-01
DAV:   5    -0.128115066373E+03    0.20718E-02   -0.25237E-02  5090   0.341E+00    0.482E-01
DAV:   6    -0.128106672070E+03    0.83943E-02   -0.23518E-02  6830   0.245E+00    0.193E-01
DAV:   7    -0.128106572867E+03    0.99203E-04   -0.14927E-02  4890   0.726E-01    0.736E-02
DAV:   8    -0.128106700619E+03   -0.12775E-03   -0.30333E-03  4700   0.424E-01    0.637E-02
DAV:   9    -0.128106622541E+03    0.78078E-04   -0.42438E-04  4820   0.207E-01    0.348E-02
DAV:  10    -0.128106608109E+03    0.14433E-04   -0.43034E-04  5040   0.146E-01    0.163E-02
DAV:  11    -0.128106616084E+03   -0.79759E-05   -0.10689E-04  4720   0.753E-02    0.954E-03
DAV:  12    -0.128106620680E+03   -0.45960E-05   -0.22282E-05  3220   0.501E-02
  35 F= -.12810662E+03 E0= -.12806791E+03  d E =0.518830E-01
quench:  g(F)=  0.000E+00 g(S)=  0.000E+00 dE (1.order)= 0.000E+00
 bond charge predicted
       N       E                     dE             d eps       ncg     rms          rms(c)
DAV:   1    -0.128064917982E+03    0.41698E-01   -0.57854E+01  4500   0.120E+01    0.303E-01
DAV:   2    -0.128102535690E+03   -0.37618E-01   -0.40005E-01  4890   0.159E+00    0.275E-01
DAV:   3    -0.128102161570E+03    0.37412E-03   -0.14420E-02  4900   0.118E+00    0.194E-01
DAV:   4    -0.128101838066E+03    0.32350E-03   -0.25712E-03  4890   0.918E-01    0.166E-01
DAV:   5    -0.128101310655E+03    0.52741E-03   -0.11832E-03  6180   0.631E-01    0.126E-01
DAV:   6    -0.128100836809E+03    0.47385E-03   -0.19669E-03  6010   0.468E-01    0.399E-02
DAV:   7    -0.128100852603E+03   -0.15795E-04   -0.62967E-04  4940   0.205E-01    0.213E-02
DAV:   8    -0.128100850391E+03    0.22119E-05   -0.12470E-04  4740   0.959E-02    0.161E-02
DAV:   9    -0.128100845898E+03    0.44933E-05   -0.55544E-05  4600   0.642E-02
  36 F= -.12810085E+03 E0= -.12806270E+03  d E =0.577478E-02
quench:  g(F)=  0.000E+00 g(S)=  0.000E+00 dE (1.order)= 0.000E+00
 bond charge predicted
       N       E                     dE             d eps       ncg     rms          rms(c)
DAV:   1    -0.128124076892E+03   -0.23227E-01   -0.28140E+00  4500   0.337E+00    0.994E-02
DAV:   2    -0.128125432893E+03   -0.13560E-02   -0.16009E-02  4760   0.507E-01    0.779E-02
DAV:   3    -0.128125500418E+03   -0.67525E-04   -0.16115E-03  4880   0.520E-01    0.667E-02
DAV:   4    -0.128125453642E+03    0.46776E-04   -0.51714E-04  4930   0.505E-01    0.418E-02
DAV:   5    -0.128125407408E+03    0.46234E-04   -0.28424E-04  5160   0.399E-01    0.279E-02
DAV:   6    -0.128125373593E+03    0.33814E-04   -0.14337E-04  6330   0.191E-01    0.864E-03
DAV:   7    -0.128125375330E+03   -0.17370E-05   -0.46573E-05  4440   0.566E-02
  37 F= -.12812538E+03 E0= -.12808682E+03  d E =-.245294E-01
quench:  g(F)=  0.000E+00 g(S)=  0.000E+00 dE (1.order)= 0.000E+00
 bond charge predicted
       N       E                     dE             d eps       ncg     rms          rms(c)
DAV:   1    -0.128163411012E+03   -0.38037E-01   -0.26712E+01  4500   0.106E+01    0.329E-01
DAV:   2    -0.128177145598E+03   -0.13735E-01   -0.16787E-01  4600   0.160E+00    0.242E-01
DAV:   3    -0.128177279399E+03   -0.13380E-03   -0.12880E-02  4810   0.119E+00    0.171E-01
DAV:   4    -0.128176827866E+03    0.45153E-03   -0.25921E-03  4790   0.919E-01    0.106E-01
DAV:   5    -0.128177253299E+03   -0.42543E-03   -0.22369E-03  5070   0.112E+00    0.113E-01
DAV:   6    -0.128176568574E+03    0.68472E-03   -0.17196E-03  6670   0.931E-01    0.146E-02
DAV:   7    -0.128176595243E+03   -0.26669E-04   -0.44683E-04  5680   0.161E-01    0.159E-02
DAV:   8    -0.128176597316E+03   -0.20730E-05   -0.11940E-04  4730   0.990E-02    0.123E-02
DAV:   9    -0.128176595884E+03    0.14321E-05   -0.17828E-05  2850   0.355E-02
  38 F= -.12817660E+03 E0= -.12813690E+03  d E =-.512206E-01
quench:  g(F)=  0.000E+00 g(S)=  0.000E+00 dE (1.order)= 0.000E+00
 bond charge predicted
       N       E                     dE             d eps       ncg     rms          rms(c)
DAV:   1    -0.128178151773E+03   -0.15545E-02   -0.74001E+00  4500   0.499E+00    0.140E-01
DAV:   2    -0.128182473559E+03   -0.43218E-02   -0.48420E-02  4680   0.728E-01    0.110E-01
DAV:   3    -0.128182511710E+03   -0.38151E-04   -0.29718E-03  4600   0.535E-01    0.786E-02
DAV:   4    -0.128182476069E+03    0.35640E-04   -0.68838E-04  4750   0.523E-01    0.651E-02
DAV:   5    -0.128182436742E+03    0.39327E-04   -0.53147E-04  5260   0.535E-01    0.539E-02
DAV:   6    -0.128182333487E+03    0.10325E-03   -0.38198E-04  7120   0.327E-01    0.130E-02
DAV:   7    -0.128182336185E+03   -0.26979E-05   -0.10743E-04  5090   0.893E-02    0.752E-03
DAV:   8    -0.128182335920E+03    0.26476E-06   -0.31013E-05  3740   0.420E-02
  39 F= -.12818234E+03 E0= -.12814237E+03  d E =-.574004E-02
quench:  g(F)=  0.000E+00 g(S)=  0.000E+00 dE (1.order)= 0.000E+00
 bond charge predicted
       N       E                     dE             d eps       ncg     rms          rms(c)
DAV:   1    -0.128182031077E+03    0.30511E-03   -0.72281E-01  4500   0.143E+00    0.313E-02
DAV:   2    -0.128182444081E+03   -0.41300E-03   -0.43268E-03  4720   0.181E-01    0.296E-02
DAV:   3    -0.128182439717E+03    0.43649E-05   -0.15280E-04  4880   0.136E-01    0.231E-02
DAV:   4    -0.128182435025E+03    0.46915E-05   -0.35881E-05  3430   0.123E-01
  40 F= -.12818244E+03 E0= -.12814250E+03  d E =-.991046E-04
quench:  g(F)=  0.000E+00 g(S)=  0.000E+00 dE (1.order)= 0.000E+00
 bond charge predicted
       N       E                     dE             d eps       ncg     rms          rms(c)
DAV:   1    -0.128180144820E+03    0.22949E-02   -0.58073E+00  4500   0.436E+00    0.107E-01
DAV:   2    -0.128183184240E+03   -0.30394E-02   -0.32683E-02  4860   0.611E-01    0.985E-02
DAV:   3    -0.128183219052E+03   -0.34812E-04   -0.21471E-03  4920   0.655E-01    0.818E-02
DAV:   4    -0.128183107629E+03    0.11142E-03   -0.56025E-04  4810   0.502E-01    0.588E-02
DAV:   5    -0.128183043407E+03    0.64222E-04   -0.39089E-04  7270   0.330E-01    0.410E-02
DAV:   6    -0.128182993600E+03    0.49806E-04   -0.30321E-04  5950   0.232E-01    0.170E-02
DAV:   7    -0.128182996242E+03   -0.26412E-05   -0.10251E-04  4790   0.593E-02    0.823E-03
DAV:   8    -0.128182993000E+03    0.32418E-05   -0.68790E-06  2780   0.384E-02
  41 F= -.12818299E+03 E0= -.12814301E+03  d E =-.557975E-03
quench:  g(F)=  0.000E+00 g(S)=  0.000E+00 dE (1.order)= 0.000E+00
 bond charge predicted
       N       E                     dE             d eps       ncg     rms          rms(c)
DAV:   1    -0.128182492938E+03    0.50330E-03   -0.50486E-01  4570   0.146E+00    0.426E-02
DAV:   2    -0.128182700845E+03   -0.20791E-03   -0.25073E-03  4840   0.256E-01    0.402E-02
DAV:   3    -0.128182706170E+03   -0.53244E-05   -0.36996E-04  4860   0.224E-01    0.254E-02
DAV:   4    -0.128182706236E+03   -0.66291E-07   -0.86265E-05  4880   0.192E-01
  42 F= -.12818271E+03 E0= -.12814271E+03  d E =0.286764E-03
quench:  g(F)=  0.000E+00 g(S)=  0.000E+00 dE (1.order)= 0.000E+00
 bond charge predicted
       N       E                     dE             d eps       ncg     rms          rms(c)
DAV:   1    -0.128177882043E+03    0.48241E-02   -0.53834E+00  4500   0.465E+00    0.140E-01
DAV:   2    -0.128180668152E+03   -0.27861E-02   -0.32842E-02  4720   0.908E-01    0.132E-01
DAV:   3    -0.128180769136E+03   -0.10098E-03   -0.47033E-03  4900   0.899E-01    0.898E-02
DAV:   4    -0.128180725196E+03    0.43940E-04   -0.13638E-03  4920   0.752E-01    0.701E-02
DAV:   5    -0.128180584029E+03    0.14117E-03   -0.57139E-04  4820   0.519E-01    0.366E-02
DAV:   6    -0.128180556190E+03    0.27839E-04   -0.33490E-04  6940   0.238E-01    0.116E-02
DAV:   7    -0.128180554661E+03    0.15289E-05   -0.13944E-04  4650   0.121E-01    0.674E-03
DAV:   8    -0.128180558224E+03   -0.35631E-05   -0.53257E-05  4690   0.425E-02
  43 F= -.12818056E+03 E0= -.12814089E+03  d E =0.214801E-02
quench:  g(F)=  0.000E+00 g(S)=  0.000E+00 dE (1.order)= 0.000E+00
 bond charge predicted
       N       E                     dE             d eps       ncg     rms          rms(c)
DAV:   1    -0.127906799575E+03    0.27376E+00   -0.37210E+02  4500   0.334E+01    0.916E-01
DAV:   2    -0.128198630335E+03   -0.29183E+00   -0.31649E+00  4780   0.462E+00    0.784E-01
DAV:   3    -0.128193415084E+03    0.52153E-02   -0.11129E-01  4820   0.285E+00    0.494E-01
DAV:   4    -0.128191562515E+03    0.18526E-02   -0.19648E-02  4970   0.243E+00    0.438E-01
DAV:   5    -0.128187679852E+03    0.38827E-02   -0.11918E-02  5580   0.220E+00    0.310E-01
DAV:   6    -0.128184550614E+03    0.31292E-02   -0.15406E-02  6750   0.148E+00    0.109E-01
DAV:   7    -0.128184664545E+03   -0.11393E-03   -0.49462E-03  4890   0.641E-01    0.539E-02
DAV:   8    -0.128184659529E+03    0.50162E-05   -0.10968E-03  4680   0.240E-01    0.415E-02
DAV:   9    -0.128184638653E+03    0.20877E-04   -0.43807E-04  4820   0.192E-01    0.237E-02
DAV:  10    -0.128184634464E+03    0.41887E-05   -0.75807E-05  5040   0.975E-02
  44 F= -.12818463E+03 E0= -.12814444E+03  d E =-.407624E-02
quench:  g(F)=  0.000E+00 g(S)=  0.000E+00 dE (1.order)= 0.000E+00
 bond charge predicted
       N       E                     dE             d eps       ncg     rms          rms(c)
DAV:   1    -0.128185804961E+03   -0.11663E-02   -0.57750E-01  4510   0.160E+00    0.474E-02
DAV:   2    -0.128185967691E+03   -0.16273E-03   -0.21057E-03  4650   0.248E-01    0.418E-02
DAV:   3    -0.128185975430E+03   -0.77399E-05   -0.39157E-04  4780   0.270E-01    0.321E-02
DAV:   4    -0.128185980497E+03   -0.50665E-05   -0.16689E-04  4800   0.292E-01    0.262E-02
DAV:   5    -0.128185946478E+03    0.34019E-04   -0.87643E-05  3420   0.214E-01    0.523E-03
DAV:   6    -0.128185948518E+03   -0.20401E-05   -0.36853E-05  4040   0.538E-02
  45 F= -.12818595E+03 E0= -.12814587E+03  d E =-.131405E-02
quench:  g(F)=  0.000E+00 g(S)=  0.000E+00 dE (1.order)= 0.000E+00
 bond charge predicted
       N       E                     dE             d eps       ncg     rms          rms(c)
DAV:   1    -0.128179285577E+03    0.66609E-02   -0.16255E+01  4500   0.631E+00    0.140E-01
DAV:   2    -0.128189512389E+03   -0.10227E-01   -0.10570E-01  4770   0.798E-01    0.137E-01
DAV:   3    -0.128189371260E+03    0.14113E-03   -0.29688E-03  4740   0.441E-01    0.100E-01
DAV:   4    -0.128189280760E+03    0.90500E-04   -0.40974E-04  4910   0.339E-01    0.882E-02
DAV:   5    -0.128189208355E+03    0.72405E-04   -0.49498E-04  6040   0.480E-01    0.735E-02
DAV:   6    -0.128188991297E+03    0.21706E-03   -0.70382E-04  7350   0.397E-01    0.184E-02
DAV:   7    -0.128189002916E+03   -0.11619E-04   -0.21995E-04  5620   0.105E-01    0.132E-02
DAV:   8    -0.128189000807E+03    0.21084E-05   -0.42150E-05  4390   0.430E-02
  46 F= -.12818900E+03 E0= -.12814917E+03  d E =-.305229E-02
quench:  g(F)=  0.000E+00 g(S)=  0.000E+00 dE (1.order)= 0.000E+00
 bond charge predicted
       N       E                     dE             d eps       ncg     rms          rms(c)
DAV:   1    -0.128185677328E+03    0.33256E-02   -0.96341E+00  4500   0.471E+00    0.107E-01
DAV:   2    -0.128191681514E+03   -0.60042E-02   -0.62404E-02  4770   0.562E-01    0.975E-02
DAV:   3    -0.128191605326E+03    0.76187E-04   -0.16555E-03  4580   0.268E-01    0.720E-02
DAV:   4    -0.128191553948E+03    0.51378E-04   -0.17893E-04  4880   0.208E-01    0.629E-02
DAV:   5    -0.128191505028E+03    0.48920E-04   -0.21231E-04  5460   0.309E-01    0.508E-02
DAV:   6    -0.128191405071E+03    0.99957E-04   -0.32962E-04  6720   0.283E-01    0.153E-02
DAV:   7    -0.128191408083E+03   -0.30114E-05   -0.13930E-04  6010   0.936E-02    0.100E-02
DAV:   8    -0.128191407330E+03    0.75305E-06   -0.24978E-05  3470   0.322E-02
  47 F= -.12819141E+03 E0= -.12815159E+03  d E =-.240652E-02
quench:  g(F)=  0.000E+00 g(S)=  0.000E+00 dE (1.order)= 0.000E+00
 bond charge predicted
       N       E                     dE             d eps       ncg     rms          rms(c)
DAV:   1    -0.128083839310E+03    0.10757E+00   -0.14993E+02  4500   0.194E+01    0.553E-01
DAV:   2    -0.128195877782E+03   -0.11204E+00   -0.12122E+00  4680   0.280E+00    0.465E-01
DAV:   3    -0.128195070757E+03    0.80703E-03   -0.49022E-02  4810   0.155E+00    0.305E-01
DAV:   4    -0.128194426713E+03    0.64404E-03   -0.68522E-03  4960   0.142E+00    0.272E-01
DAV:   5    -0.128192863660E+03    0.15631E-02   -0.29993E-03  5630   0.105E+00    0.198E-01
DAV:   6    -0.128191741227E+03    0.11224E-02   -0.55444E-03  6400   0.751E-01    0.806E-02
DAV:   7    -0.128191676236E+03    0.64992E-04   -0.16094E-03  5270   0.484E-01    0.352E-02
DAV:   8    -0.128191685498E+03   -0.92621E-05   -0.43386E-04  4740   0.136E-01    0.283E-02
DAV:   9    -0.128191668884E+03    0.16614E-04   -0.12979E-04  4800   0.120E-01    0.148E-02
DAV:  10    -0.128191667323E+03    0.15613E-05   -0.24426E-05  3710   0.484E-02
  48 F= -.12819167E+03 E0= -.12815119E+03  d E =-.259993E-03
quench:  g(F)=  0.000E+00 g(S)=  0.000E+00 dE (1.order)= 0.000E+00
 bond charge predicted
       N       E                     dE             d eps       ncg     rms          rms(c)
DAV:   1    -0.128042355953E+03    0.14931E+00   -0.21710E+02  4500   0.272E+01    0.718E-01
DAV:   2    -0.128193036741E+03   -0.15068E+00   -0.16301E+00  5590   0.464E+00    0.746E-01
DAV:   3    -0.128189140678E+03    0.38961E-02   -0.84128E-02  4950   0.365E+00    0.450E-01
DAV:   4    -0.128187439586E+03    0.17011E-02   -0.18700E-02  5020   0.263E+00    0.392E-01
DAV:   5    -0.128185074579E+03    0.23650E-02   -0.14169E-02  5390   0.253E+00    0.301E-01
DAV:   6    -0.128182070979E+03    0.30036E-02   -0.15607E-02  6490   0.131E+00    0.551E-02
DAV:   7    -0.128182429685E+03   -0.35871E-03   -0.44121E-03  4750   0.347E-01    0.615E-02
DAV:   8    -0.128182398382E+03    0.31303E-04   -0.81755E-04  4740   0.272E-01    0.349E-02
DAV:   9    -0.128182368444E+03    0.29938E-04   -0.14205E-04  4620   0.938E-02    0.173E-02
DAV:  10    -0.128182366815E+03    0.16294E-05   -0.52896E-05  4850   0.820E-02
  49 F= -.12818237E+03 E0= -.12814375E+03  d E =0.930051E-02
quench:  g(F)=  0.000E+00 g(S)=  0.000E+00 dE (1.order)= 0.000E+00
 bond charge predicted
       N       E                     dE             d eps       ncg     rms          rms(c)
DAV:   1    -0.128184685421E+03   -0.23170E-02   -0.37577E+01  4500   0.115E+01    0.330E-01
DAV:   2    -0.128206338365E+03   -0.21653E-01   -0.24807E-01  4660   0.166E+00    0.260E-01
DAV:   3    -0.128206296405E+03    0.41961E-04   -0.15129E-02  4780   0.110E+00    0.174E-01
DAV:   4    -0.128205837809E+03    0.45860E-03   -0.22691E-03  4950   0.748E-01    0.132E-01
DAV:   5    -0.128205619633E+03    0.21818E-03   -0.16746E-03  6220   0.716E-01    0.793E-02
DAV:   6    -0.128205545871E+03    0.73762E-04   -0.17264E-03  5380   0.937E-01    0.427E-02
DAV:   7    -0.128205396942E+03    0.14893E-03   -0.51810E-04  6940   0.444E-01    0.137E-02
DAV:   8    -0.128205403385E+03   -0.64434E-05   -0.18839E-04  4790   0.984E-02    0.121E-02
DAV:   9    -0.128205404791E+03   -0.14057E-05   -0.55984E-05  4570   0.455E-02
  50 F= -.12820540E+03 E0= -.12816577E+03  d E =-.230380E-01
quench:  g(F)=  0.000E+00 g(S)=  0.000E+00 dE (1.order)= 0.000E+00
 bond charge predicted
       N       E                     dE             d eps       ncg     rms          rms(c)
DAV:   1    -0.128205944609E+03   -0.54122E-03   -0.15719E+00  4500   0.226E+00    0.554E-02
DAV:   2    -0.128206726036E+03   -0.78143E-03   -0.85354E-03  4650   0.259E-01    0.453E-02
DAV:   3    -0.128206706383E+03    0.19653E-04   -0.33081E-04  4630   0.188E-01    0.350E-02
DAV:   4    -0.128206694028E+03    0.12355E-04   -0.95061E-05  4770   0.207E-01    0.287E-02
DAV:   5    -0.128206685831E+03    0.81967E-05   -0.11964E-04  4370   0.246E-01    0.238E-02
DAV:   6    -0.128206659086E+03    0.26746E-04   -0.89073E-05  5010   0.154E-01    0.630E-03
DAV:   7    -0.128206661581E+03   -0.24951E-05   -0.35698E-05  3990   0.321E-02
  51 F= -.12820666E+03 E0= -.12816698E+03  d E =-.125679E-02
quench:  g(F)=  0.000E+00 g(S)=  0.000E+00 dE (1.order)= 0.000E+00
 bond charge predicted
       N       E                     dE             d eps       ncg     rms          rms(c)
DAV:   1    -0.128200176827E+03    0.64823E-02   -0.18158E+01  4510   0.744E+00    0.181E-01
DAV:   2    -0.128209996214E+03   -0.98194E-02   -0.10562E-01  4810   0.898E-01    0.155E-01
DAV:   3    -0.128209790668E+03    0.20555E-03   -0.41488E-03  4770   0.654E-01    0.116E-01
DAV:   4    -0.128209652260E+03    0.13841E-03   -0.93072E-04  5030   0.601E-01    0.964E-02
DAV:   5    -0.128209521135E+03    0.13112E-03   -0.98194E-04  6090   0.684E-01    0.743E-02
DAV:   6    -0.128209271772E+03    0.24936E-03   -0.10357E-03  7510   0.450E-01    0.158E-02
DAV:   7    -0.128209290574E+03   -0.18802E-04   -0.24827E-04  4820   0.989E-02    0.134E-02
DAV:   8    -0.128209288662E+03    0.19115E-05   -0.38366E-05  4380   0.525E-02
  52 F= -.12820929E+03 E0= -.12816956E+03  d E =-.262708E-02
quench:  g(F)=  0.000E+00 g(S)=  0.000E+00 dE (1.order)= 0.000E+00
 bond charge predicted
       N       E                     dE             d eps       ncg     rms          rms(c)
DAV:   1    -0.128197653955E+03    0.11637E-01   -0.27487E+01  4500   0.873E+00    0.211E-01
DAV:   2    -0.128213859697E+03   -0.16206E-01   -0.17104E-01  5340   0.127E+00    0.212E-01
DAV:   3    -0.128213466570E+03    0.39313E-03   -0.72998E-03  4770   0.903E-01    0.140E-01
DAV:   4    -0.128213253588E+03    0.21298E-03   -0.11405E-03  4990   0.556E-01    0.120E-01
DAV:   5    -0.128213142735E+03    0.11085E-03   -0.10671E-03  5470   0.712E-01    0.102E-01
DAV:   6    -0.128212699116E+03    0.44362E-03   -0.17224E-03  7170   0.505E-01    0.195E-02
DAV:   7    -0.128212731545E+03   -0.32429E-04   -0.41775E-04  4760   0.136E-01    0.178E-02
DAV:   8    -0.128212728943E+03    0.26014E-05   -0.92701E-05  4640   0.897E-02
  53 F= -.12821273E+03 E0= -.12817317E+03  d E =-.344028E-02
quench:  g(F)=  0.000E+00 g(S)=  0.000E+00 dE (1.order)= 0.000E+00
 bond charge predicted
       N       E                     dE             d eps       ncg     rms          rms(c)
DAV:   1    -0.128099917486E+03    0.11281E+00   -0.15233E+02  4500   0.203E+01    0.517E-01
DAV:   2    -0.128209829436E+03   -0.10991E+00   -0.11685E+00  4700   0.281E+00    0.484E-01
DAV:   3    -0.128208368709E+03    0.14607E-02   -0.42408E-02  4810   0.191E+00    0.329E-01
DAV:   4    -0.128207520798E+03    0.84791E-03   -0.74836E-03  5010   0.157E+00    0.290E-01
DAV:   5    -0.128205832266E+03    0.16885E-02   -0.40267E-03  5940   0.124E+00    0.213E-01
DAV:   6    -0.128204416283E+03    0.14160E-02   -0.64753E-03  6370   0.876E-01    0.638E-02
DAV:   7    -0.128204492304E+03   -0.76021E-04   -0.19813E-03  4830   0.383E-01    0.379E-02
DAV:   8    -0.128204491120E+03    0.11843E-05   -0.44259E-04  4730   0.166E-01    0.297E-02
DAV:   9    -0.128204474345E+03    0.16775E-04   -0.17502E-04  4760   0.112E-01    0.142E-02
DAV:  10    -0.128204472708E+03    0.16372E-05   -0.36210E-05  3810   0.626E-02
  54 F= -.12820447E+03 E0= -.12816516E+03  d E =0.825624E-02
quench:  g(F)=  0.000E+00 g(S)=  0.000E+00 dE (1.order)= 0.000E+00
 bond charge predicted
       N       E                     dE             d eps       ncg     rms          rms(c)
DAV:   1    -0.128205494184E+03   -0.10198E-02   -0.22045E+01  4500   0.102E+01    0.285E-01
DAV:   2    -0.128208485792E+03   -0.29916E-02   -0.54220E-02  4550   0.112E+00    0.230E-01
DAV:   3    -0.128207907975E+03    0.57782E-03   -0.74776E-03  4870   0.126E+00    0.180E-01
DAV:   4    -0.128208171332E+03   -0.26336E-03   -0.53706E-03  7960   0.156E+00    0.109E-01
DAV:   5    -0.128206927141E+03    0.12442E-02   -0.35313E-03  8480   0.125E+00    0.624E-02
DAV:   6    -0.128206866877E+03    0.60264E-04   -0.54438E-04  5680   0.282E-01    0.310E-02
DAV:   7    -0.128206862606E+03    0.42712E-05   -0.23143E-04  4830   0.103E-01    0.124E-02
DAV:   8    -0.128206862780E+03   -0.17466E-06   -0.40272E-05  3960   0.475E-02
  55 F= -.12820686E+03 E0= -.12816741E+03  d E =-.239007E-02
quench:  g(F)=  0.000E+00 g(S)=  0.000E+00 dE (1.order)= 0.000E+00
 bond charge predicted
       N       E                     dE             d eps       ncg     rms          rms(c)
DAV:   1    -0.128208496471E+03   -0.16339E-02   -0.40333E-01  4600   0.134E+00    0.391E-02
DAV:   2    -0.128208613428E+03   -0.11696E-03   -0.15812E-03  4700   0.205E-01    0.335E-02
DAV:   3    -0.128208615987E+03   -0.25588E-05   -0.25955E-04  4670   0.195E-01    0.242E-02
DAV:   4    -0.128208613353E+03    0.26341E-05   -0.77709E-05  4690   0.188E-01
  56 F= -.12820861E+03 E0= -.12816908E+03  d E =-.175057E-02
quench:  g(F)=  0.000E+00 g(S)=  0.000E+00 dE (1.order)= 0.000E+00
 bond charge predicted
       N       E                     dE             d eps       ncg     rms          rms(c)
DAV:   1    -0.128208949521E+03   -0.33353E-03   -0.37240E+00  4500   0.414E+00    0.121E-01
DAV:   2    -0.128209812838E+03   -0.86332E-03   -0.12245E-02  4770   0.623E-01    0.104E-01
DAV:   3    -0.128209894647E+03   -0.81809E-04   -0.24497E-03  4890   0.782E-01    0.868E-02
DAV:   4    -0.128209830832E+03    0.63815E-04   -0.11936E-03  5070   0.781E-01    0.638E-02
DAV:   5    -0.128209635212E+03    0.19562E-03   -0.55646E-04  7740   0.486E-01    0.176E-02
DAV:   6    -0.128209639450E+03   -0.42379E-05   -0.17731E-04  6000   0.118E-01    0.772E-03
DAV:   7    -0.128209644020E+03   -0.45698E-05   -0.64850E-05  4670   0.451E-02
  57 F= -.12820964E+03 E0= -.12816994E+03  d E =-.103067E-02
quench:  g(F)=  0.000E+00 g(S)=  0.000E+00 dE (1.order)= 0.000E+00
 bond charge predicted
       N       E                     dE             d eps       ncg     rms          rms(c)
DAV:   1    -0.128205731459E+03    0.39080E-02   -0.94846E+00  4500   0.665E+00    0.181E-01
DAV:   2    -0.128206803077E+03   -0.10716E-02   -0.20917E-02  4670   0.646E-01    0.142E-01
DAV:   3    -0.128206596555E+03    0.20652E-03   -0.30686E-03  4850   0.857E-01    0.122E-01
DAV:   4    -0.128206543668E+03    0.52886E-04   -0.22407E-03  6850   0.104E+00    0.721E-02
DAV:   5    -0.128206142019E+03    0.40165E-03   -0.14428E-03  8240   0.778E-01    0.318E-02
DAV:   6    -0.128206123087E+03    0.18932E-04   -0.25541E-04  5770   0.188E-01    0.128E-02
DAV:   7    -0.128206126921E+03   -0.38343E-05   -0.89676E-05  4670   0.485E-02
  58 F= -.12820613E+03 E0= -.12816642E+03  d E =0.351710E-02
quench:  g(F)=  0.000E+00 g(S)=  0.000E+00 dE (1.order)= 0.000E+00
 bond charge predicted
       N       E                     dE             d eps       ncg     rms          rms(c)
DAV:   1    -0.128040241991E+03    0.16588E+00   -0.53142E+02  4500   0.516E+01    0.160E+00
DAV:   2    -0.128212371292E+03   -0.17213E+00   -0.24228E+00  5500   0.116E+01    0.175E+00
DAV:   3    -0.128184743137E+03    0.27628E-01   -0.39673E-01  4910   0.108E+01    0.837E-01
DAV:   4    -0.128178073538E+03    0.66696E-02   -0.13066E-01  6060   0.754E+00    0.777E-01
DAV:   5    -0.128147382940E+03    0.30691E-01   -0.10919E-01  5310   0.596E+00    0.424E-01
DAV:   6    -0.128150182003E+03   -0.27991E-02   -0.65993E-02  5370   0.218E+00    0.359E-01
DAV:   7    -0.128148664457E+03    0.15175E-02   -0.20926E-02  4740   0.165E+00    0.671E-02
DAV:   8    -0.128148943178E+03   -0.27872E-03   -0.40887E-03  4750   0.348E-01    0.494E-02
DAV:   9    -0.128148968177E+03   -0.24999E-04   -0.80527E-04  4600   0.270E-01    0.304E-02
DAV:  10    -0.128148963015E+03    0.51622E-05   -0.91950E-05  4730   0.130E-01
  59 F= -.12814896E+03 E0= -.12810982E+03  d E =0.571639E-01
quench:  g(F)=  0.000E+00 g(S)=  0.000E+00 dE (1.order)= 0.000E+00
 bond charge predicted
       N       E                     dE             d eps       ncg     rms          rms(c)
DAV:   1    -0.128169742618E+03   -0.20774E-01   -0.34011E+01  4500   0.124E+01    0.341E-01
DAV:   2    -0.128177331431E+03   -0.75888E-02   -0.11157E-01  4630   0.144E+00    0.283E-01
DAV:   3    -0.128176670091E+03    0.66134E-03   -0.10790E-02  4720   0.160E+00    0.207E-01
DAV:   4    -0.128176583440E+03    0.86651E-04   -0.64016E-03  5640   0.188E+00    0.149E-01
DAV:   5    -0.128175200566E+03    0.13829E-02   -0.55106E-03  7940   0.160E+00    0.743E-02
DAV:   6    -0.128175021100E+03    0.17947E-03   -0.16793E-03  6930   0.547E-01    0.261E-02
DAV:   7    -0.128175041464E+03   -0.20363E-04   -0.47904E-04  4810   0.126E-01    0.187E-02
DAV:   8    -0.128175043687E+03   -0.22237E-05   -0.11862E-04  4570   0.717E-02    0.140E-02
DAV:   9    -0.128175039093E+03    0.45938E-05   -0.17674E-05  3070   0.434E-02
  60 F= -.12817504E+03 E0= -.12813556E+03  d E =-.260761E-01
quench:  g(F)=  0.000E+00 g(S)=  0.000E+00 dE (1.order)= 0.000E+00
 bond charge predicted
       N       E                     dE             d eps       ncg     rms          rms(c)
DAV:   1    -0.128184053335E+03   -0.90096E-02   -0.27057E+01  4500   0.111E+01    0.298E-01
DAV:   2    -0.128189100264E+03   -0.50469E-02   -0.77666E-02  4540   0.116E+00    0.243E-01
DAV:   3    -0.128188609621E+03    0.49064E-03   -0.76944E-03  4890   0.148E+00    0.190E-01
DAV:   4    -0.128188338963E+03    0.27066E-03   -0.54739E-03  6270   0.175E+00    0.123E-01
DAV:   5    -0.128187251625E+03    0.10873E-02   -0.43809E-03  8260   0.130E+00    0.532E-02
DAV:   6    -0.128187162931E+03    0.88695E-04   -0.11174E-03  6930   0.436E-01    0.242E-02
DAV:   7    -0.128187176007E+03   -0.13076E-04   -0.33981E-04  4830   0.124E-01    0.166E-02
DAV:   8    -0.128187176633E+03   -0.62655E-06   -0.87037E-05  4650   0.581E-02
  61 F= -.12818718E+03 E0= -.12814757E+03  d E =-.121375E-01
quench:  g(F)=  0.000E+00 g(S)=  0.000E+00 dE (1.order)= 0.000E+00
 bond charge predicted
       N       E                     dE             d eps       ncg     rms          rms(c)
DAV:   1    -0.128193522666E+03   -0.63467E-02   -0.38561E+01  4520   0.133E+01    0.358E-01
DAV:   2    -0.128200314550E+03   -0.67919E-02   -0.10697E-01  4860   0.148E+00    0.304E-01
DAV:   3    -0.128199700593E+03    0.61396E-03   -0.12437E-02  4790   0.190E+00    0.230E-01
DAV:   4    -0.128199292284E+03    0.40831E-03   -0.82267E-03  6680   0.211E+00    0.152E-01
DAV:   5    -0.128197526329E+03    0.17660E-02   -0.64141E-03  8260   0.153E+00    0.620E-02
DAV:   6    -0.128197464931E+03    0.61398E-04   -0.16458E-03  6320   0.485E-01    0.327E-02
DAV:   7    -0.128197483778E+03   -0.18846E-04   -0.54538E-04  4710   0.167E-01    0.202E-02
DAV:   8    -0.128197485271E+03   -0.14938E-05   -0.14063E-04  4660   0.716E-02    0.150E-02
DAV:   9    -0.128197480404E+03    0.48678E-05   -0.20969E-05  3180   0.455E-02
  62 F= -.12819748E+03 E0= -.12815780E+03  d E =-.103038E-01
quench:  g(F)=  0.000E+00 g(S)=  0.000E+00 dE (1.order)= 0.000E+00
 bond charge predicted
       N       E                     dE             d eps       ncg     rms          rms(c)
DAV:   1    -0.128200841551E+03   -0.33563E-02   -0.66225E+00  4510   0.552E+00    0.148E-01
DAV:   2    -0.128201653625E+03   -0.81207E-03   -0.15007E-02  4550   0.470E-01    0.112E-01
DAV:   3    -0.128201398667E+03    0.25496E-03   -0.12888E-03  4940   0.623E-01    0.906E-02
DAV:   4    -0.128201378424E+03    0.20243E-04   -0.14430E-03  6930   0.877E-01    0.457E-02
DAV:   5    -0.128201167678E+03    0.21075E-03   -0.91570E-04  8340   0.594E-01    0.227E-02
DAV:   6    -0.128201144528E+03    0.23150E-04   -0.12878E-04  5990   0.176E-01    0.949E-03
DAV:   7    -0.128201147040E+03   -0.25127E-05   -0.56317E-05  4680   0.493E-02
  63 F= -.12820115E+03 E0= -.12816150E+03  d E =-.366664E-02
quench:  g(F)=  0.000E+00 g(S)=  0.000E+00 dE (1.order)= 0.000E+00
 bond charge predicted
       N       E                     dE             d eps       ncg     rms          rms(c)
DAV:   1    -0.128204157909E+03   -0.30134E-02   -0.48455E+00  4500   0.474E+00    0.128E-01
DAV:   2    -0.128204571103E+03   -0.41319E-03   -0.92706E-03  4760   0.400E-01    0.951E-02
DAV:   3    -0.128204434507E+03    0.13660E-03   -0.12265E-03  4780   0.641E-01    0.887E-02
DAV:   4    -0.128204365148E+03    0.69359E-04   -0.12574E-03  7730   0.784E-01    0.386E-02
DAV:   5    -0.128204214279E+03    0.15087E-03   -0.49894E-04  7610   0.415E-01    0.226E-02
DAV:   6    -0.128204204745E+03    0.95348E-05   -0.95463E-05  4840   0.916E-02
  64 F= -.12820420E+03 E0= -.12816458E+03  d E =-.305770E-02
quench:  g(F)=  0.000E+00 g(S)=  0.000E+00 dE (1.order)= 0.000E+00
 bond charge predicted
       N       E                     dE             d eps       ncg     rms          rms(c)
DAV:   1    -0.128204917431E+03   -0.70315E-03   -0.85797E-01  4540   0.188E+00    0.467E-02
DAV:   2    -0.128205196179E+03   -0.27875E-03   -0.33448E-03  4630   0.205E-01    0.394E-02
DAV:   3    -0.128205179884E+03    0.16294E-04   -0.23192E-04  4880   0.168E-01    0.295E-02
DAV:   4    -0.128205154836E+03    0.25048E-04   -0.49076E-05  4910   0.108E-01    0.143E-02
DAV:   5    -0.128205151072E+03    0.37643E-05   -0.28974E-05  3450   0.783E-02
  65 F= -.12820515E+03 E0= -.12816557E+03  d E =-.946327E-03
quench:  g(F)=  0.000E+00 g(S)=  0.000E+00 dE (1.order)= 0.000E+00
 bond charge predicted
       N       E                     dE             d eps       ncg     rms          rms(c)
DAV:   1    -0.128202433060E+03    0.27218E-02   -0.42342E+00  4500   0.365E+00    0.850E-02
DAV:   2    -0.128204552750E+03   -0.21197E-02   -0.22860E-02  4650   0.402E-01    0.727E-02
DAV:   3    -0.128204501314E+03    0.51436E-04   -0.79669E-04  4790   0.303E-01    0.572E-02
DAV:   4    -0.128204473002E+03    0.28312E-04   -0.23480E-04  4980   0.341E-01    0.485E-02
DAV:   5    -0.128204421229E+03    0.51772E-04   -0.26591E-04  6160   0.344E-01    0.347E-02
DAV:   6    -0.128204369943E+03    0.51286E-04   -0.23047E-04  6820   0.216E-01    0.114E-02
DAV:   7    -0.128204372049E+03   -0.21055E-05   -0.56025E-05  4620   0.505E-02
  66 F= -.12820437E+03 E0= -.12816473E+03  d E =0.779023E-03
quench:  g(F)=  0.000E+00 g(S)=  0.000E+00 dE (1.order)= 0.000E+00
 bond charge predicted
       N       E                     dE             d eps       ncg     rms          rms(c)
DAV:   1    -0.128045557129E+03    0.15881E+00   -0.44011E+02  4500   0.451E+01    0.130E+00
DAV:   2    -0.128214119837E+03   -0.16856E+00   -0.21588E+00  5600   0.869E+00    0.137E+00
DAV:   3    -0.128198074008E+03    0.16046E-01   -0.24533E-01  4950   0.846E+00    0.731E-01
DAV:   4    -0.128189686316E+03    0.83877E-02   -0.79770E-02  5940   0.595E+00    0.644E-01
DAV:   5    -0.128170837082E+03    0.18849E-01   -0.65847E-02  5490   0.470E+00    0.327E-01
DAV:   6    -0.128172224699E+03   -0.13876E-02   -0.45574E-02  5930   0.205E+00    0.243E-01
DAV:   7    -0.128171561645E+03    0.66305E-03   -0.11858E-02  4820   0.121E+00    0.802E-02
DAV:   8    -0.128171669900E+03   -0.10826E-03   -0.39202E-03  4630   0.349E-01    0.596E-02
DAV:   9    -0.128171665478E+03    0.44214E-05   -0.83545E-04  4660   0.290E-01    0.339E-02
DAV:  10    -0.128171655028E+03    0.10450E-04   -0.13881E-04  4700   0.171E-01    0.182E-02
DAV:  11    -0.128171657774E+03   -0.27456E-05   -0.71096E-05  4620   0.471E-02
  67 F= -.12817166E+03 E0= -.12813176E+03  d E =0.327143E-01
quench:  g(F)=  0.000E+00 g(S)=  0.000E+00 dE (1.order)= 0.000E+00
 bond charge predicted
       N       E                     dE             d eps       ncg     rms          rms(c)
DAV:   1    -0.128175227168E+03   -0.35721E-02   -0.47500E+01  4500   0.148E+01    0.408E-01
DAV:   2    -0.128186143213E+03   -0.10916E-01   -0.15625E-01  4770   0.187E+00    0.357E-01
DAV:   3    -0.128185243769E+03    0.89944E-03   -0.18056E-02  4970   0.195E+00    0.250E-01
DAV:   4    -0.128185657552E+03   -0.41378E-03   -0.96968E-03  5970   0.228E+00    0.185E-01
DAV:   5    -0.128183101685E+03    0.25559E-02   -0.85662E-03  8470   0.198E+00    0.848E-02
DAV:   6    -0.128182950098E+03    0.15159E-03   -0.21588E-03  6740   0.601E-01    0.368E-02
DAV:   7    -0.128182967477E+03   -0.17379E-04   -0.65873E-04  4690   0.164E-01    0.196E-02
DAV:   8    -0.128182970150E+03   -0.26727E-05   -0.17106E-04  4730   0.892E-02    0.159E-02
DAV:   9    -0.128182965110E+03    0.50395E-05   -0.23683E-05  3010   0.572E-02
  68 F= -.12818297E+03 E0= -.12814328E+03  d E =-.113073E-01
quench:  g(F)=  0.000E+00 g(S)=  0.000E+00 dE (1.order)= 0.000E+00
 bond charge predicted
       N       E                     dE             d eps       ncg     rms          rms(c)
DAV:   1    -0.128178347892E+03    0.46223E-02   -0.10982E+01  4500   0.708E+00    0.192E-01
DAV:   2    -0.128180868008E+03   -0.25201E-02   -0.35539E-02  4640   0.792E-01    0.154E-01
DAV:   3    -0.128180652273E+03    0.21573E-03   -0.36008E-03  5000   0.815E-01    0.122E-01
DAV:   4    -0.128180431996E+03    0.22028E-03   -0.14842E-03  5530   0.847E-01    0.649E-02
DAV:   5    -0.128180331113E+03    0.10088E-03   -0.16005E-03  7270   0.897E-01    0.505E-02
DAV:   6    -0.128180183167E+03    0.14795E-03   -0.51133E-04  7850   0.411E-01    0.102E-02
DAV:   7    -0.128180192647E+03   -0.94803E-05   -0.14349E-04  4680   0.455E-02    0.905E-03
DAV:   8    -0.128180192144E+03    0.50289E-06   -0.12108E-05  2690   0.257E-02
  69 F= -.12818019E+03 E0= -.12814037E+03  d E =0.277297E-02
quench:  g(F)=  0.000E+00 g(S)=  0.000E+00 dE (1.order)= 0.000E+00
 bond charge predicted
       N       E                     dE             d eps       ncg     rms          rms(c)
DAV:   1    -0.128180356391E+03   -0.16374E-03   -0.63568E-02  4650   0.506E-01    0.137E-02
DAV:   2    -0.128180383213E+03   -0.26822E-04   -0.31980E-04  4740   0.783E-02    0.124E-02
DAV:   3    -0.128180383636E+03   -0.42306E-06   -0.38073E-05  4340   0.617E-02
  70 F= -.12818038E+03 E0= -.12814055E+03  d E =-.191492E-03
quench:  g(F)=  0.000E+00 g(S)=  0.000E+00 dE (1.order)= 0.000E+00
 bond charge predicted
       N       E                     dE             d eps       ncg     rms          rms(c)
DAV:   1    -0.128179258318E+03    0.11249E-02   -0.15739E+00  4500   0.247E+00    0.652E-02
DAV:   2    -0.128179881503E+03   -0.62319E-03   -0.72624E-03  4860   0.320E-01    0.570E-02
DAV:   3    -0.128179879124E+03    0.23790E-05   -0.65355E-04  4890   0.321E-01    0.446E-02
DAV:   4    -0.128179855527E+03    0.23597E-04   -0.20683E-04  4890   0.317E-01    0.326E-02
DAV:   5    -0.128179829130E+03    0.26398E-04   -0.16008E-04  5000   0.284E-01    0.214E-02
DAV:   6    -0.128179810134E+03    0.18996E-04   -0.11595E-04  6280   0.149E-01    0.697E-03
DAV:   7    -0.128179811404E+03   -0.12705E-05   -0.29001E-05  3300   0.380E-02
  71 F= -.12817981E+03 E0= -.12813992E+03  d E =0.572232E-03
quench:  g(F)=  0.000E+00 g(S)=  0.000E+00 dE (1.order)= 0.000E+00
 bond charge predicted
       N       E                     dE             d eps       ncg     rms          rms(c)
DAV:   1    -0.128173110163E+03    0.67000E-02   -0.82070E+00  4500   0.552E+00    0.136E-01
DAV:   2    -0.128176463883E+03   -0.33537E-02   -0.38694E-02  4620   0.560E-01    0.108E-01
DAV:   3    -0.128176301326E+03    0.16256E-03   -0.15251E-03  4770   0.316E-01    0.788E-02
DAV:   4    -0.128176165134E+03    0.13619E-03   -0.38957E-04  5170   0.328E-01    0.583E-02
DAV:   5    -0.128176080278E+03    0.84856E-04   -0.44450E-04  6970   0.255E-01    0.224E-02
DAV:   6    -0.128176086566E+03   -0.62874E-05   -0.18396E-04  4960   0.296E-01    0.177E-02
DAV:   7    -0.128176065758E+03    0.20808E-04   -0.49294E-05  2880   0.155E-01    0.597E-03
DAV:   8    -0.128176067567E+03   -0.18090E-05   -0.28880E-05  3510   0.352E-02
  72 F= -.12817607E+03 E0= -.12813610E+03  d E =0.374384E-02
quench:  g(F)=  0.000E+00 g(S)=  0.000E+00 dE (1.order)= 0.000E+00
 bond charge predicted
       N       E                     dE             d eps       ncg     rms          rms(c)
DAV:   1    -0.128069372052E+03    0.10669E+00   -0.21465E+02  4500   0.302E+01    0.829E-01
DAV:   2    -0.128156920182E+03   -0.87548E-01   -0.10660E+00  5640   0.488E+00    0.830E-01
DAV:   3    -0.128150670901E+03    0.62493E-02   -0.88403E-02  5000   0.456E+00    0.488E-01
DAV:   4    -0.128149210598E+03    0.14603E-02   -0.30991E-02  5440   0.386E+00    0.431E-01
DAV:   5    -0.128141562327E+03    0.76483E-02   -0.26206E-02  6040   0.340E+00    0.234E-01
DAV:   6    -0.128140789086E+03    0.77324E-03   -0.19367E-02  6420   0.134E+00    0.985E-02
DAV:   7    -0.128140758631E+03    0.30455E-04   -0.38995E-03  4710   0.528E-01    0.569E-02
DAV:   8    -0.128140794803E+03   -0.36172E-04   -0.18520E-03  4600   0.297E-01    0.421E-02
DAV:   9    -0.128140782551E+03    0.12252E-04   -0.33396E-04  4740   0.183E-01    0.248E-02
DAV:  10    -0.128140777471E+03    0.50804E-05   -0.71812E-05  4690   0.128E-01
  73 F= -.12814078E+03 E0= -.12810111E+03  d E =0.352901E-01
quench:  g(F)=  0.000E+00 g(S)=  0.000E+00 dE (1.order)= 0.000E+00
 bond charge predicted
       N       E                     dE             d eps       ncg     rms          rms(c)
DAV:   1    -0.128152280035E+03   -0.11497E-01   -0.15268E+01  4500   0.821E+00    0.223E-01
DAV:   2    -0.128156494881E+03   -0.42148E-02   -0.57472E-02  4640   0.909E-01    0.175E-01
DAV:   3    -0.128156172360E+03    0.32252E-03   -0.45203E-03  4650   0.788E-01    0.128E-01
DAV:   4    -0.128155818276E+03    0.35408E-03   -0.13580E-03  4980   0.750E-01    0.724E-02
DAV:   5    -0.128156120024E+03   -0.30175E-03   -0.20496E-03  6220   0.104E+00    0.892E-02
DAV:   6    -0.128155625650E+03    0.49437E-03   -0.11484E-03  8010   0.705E-01    0.137E-02
DAV:   7    -0.128155641524E+03   -0.15874E-04   -0.24441E-04  5300   0.797E-02    0.123E-02
DAV:   8    -0.128155641183E+03    0.34132E-06   -0.28199E-05  3170   0.420E-02
  74 F= -.12815564E+03 E0= -.12811570E+03  d E =-.148637E-01
quench:  g(F)=  0.000E+00 g(S)=  0.000E+00 dE (1.order)= 0.000E+00
 bond charge predicted
       N       E                     dE             d eps       ncg     rms          rms(c)
DAV:   1    -0.128163430696E+03   -0.77892E-02   -0.22875E+01  4500   0.101E+01    0.268E-01
DAV:   2    -0.128167947228E+03   -0.45165E-02   -0.67112E-02  4610   0.102E+00    0.217E-01
DAV:   3    -0.128167489901E+03    0.45733E-03   -0.59662E-03  4810   0.126E+00    0.170E-01
DAV:   4    -0.128167305335E+03    0.18457E-03   -0.42027E-03  5820   0.155E+00    0.114E-01
DAV:   5    -0.128166464462E+03    0.84087E-03   -0.36575E-03  8320   0.119E+00    0.502E-02
DAV:   6    -0.128166363007E+03    0.10145E-03   -0.95625E-04  7070   0.413E-01    0.198E-02
DAV:   7    -0.128166375269E+03   -0.12261E-04   -0.28007E-04  4740   0.103E-01    0.152E-02
DAV:   8    -0.128166374715E+03    0.55315E-06   -0.67074E-05  4580   0.551E-02
  75 F= -.12816637E+03 E0= -.12812637E+03  d E =-.107335E-01
quench:  g(F)=  0.000E+00 g(S)=  0.000E+00 dE (1.order)= 0.000E+00
 bond charge predicted
       N       E                     dE             d eps       ncg     rms          rms(c)
DAV:   1    -0.128173150251E+03   -0.67750E-02   -0.38299E+01  4510   0.131E+01    0.352E-01
DAV:   2    -0.128180917680E+03   -0.77674E-02   -0.11509E-01  4950   0.147E+00    0.299E-01
DAV:   3    -0.128180322746E+03    0.59493E-03   -0.12165E-02  4990   0.184E+00    0.227E-01
DAV:   4    -0.128179832440E+03    0.49031E-03   -0.73794E-03  6000   0.202E+00    0.155E-01
DAV:   5    -0.128178281738E+03    0.15507E-02   -0.61916E-03  8270   0.149E+00    0.634E-02
DAV:   6    -0.128178179927E+03    0.10181E-03   -0.17762E-03  6590   0.513E-01    0.300E-02
DAV:   7    -0.128178202055E+03   -0.22127E-04   -0.55236E-04  4840   0.157E-01    0.207E-02
DAV:   8    -0.128178201487E+03    0.56773E-06   -0.14350E-04  4690   0.786E-02    0.145E-02
DAV:   9    -0.128178196727E+03    0.47595E-05   -0.21282E-05  3170   0.455E-02
  76 F= -.12817820E+03 E0= -.12813822E+03  d E =-.118220E-01
quench:  g(F)=  0.000E+00 g(S)=  0.000E+00 dE (1.order)= 0.000E+00
 bond charge predicted
       N       E                     dE             d eps       ncg     rms          rms(c)
DAV:   1    -0.128181438841E+03   -0.32374E-02   -0.46507E+00  4500   0.456E+00    0.120E-01
DAV:   2    -0.128182345389E+03   -0.90655E-03   -0.13439E-02  4750   0.405E-01    0.912E-02
DAV:   3    -0.128182177511E+03    0.16788E-03   -0.77466E-04  5210   0.425E-01    0.689E-02
DAV:   4    -0.128182175580E+03    0.19314E-05   -0.75145E-04  5410   0.659E-01    0.474E-02
DAV:   5    -0.128182059218E+03    0.11636E-03   -0.72165E-04  8020   0.566E-01    0.255E-02
DAV:   6    -0.128182020532E+03    0.38686E-04   -0.16888E-04  6390   0.211E-01    0.687E-03
DAV:   7    -0.128182023326E+03   -0.27939E-05   -0.50851E-05  4740   0.287E-02
  77 F= -.12818202E+03 E0= -.12814210E+03  d E =-.382660E-02
quench:  g(F)=  0.000E+00 g(S)=  0.000E+00 dE (1.order)= 0.000E+00
 bond charge predicted
       N       E                     dE             d eps       ncg     rms          rms(c)
DAV:   1    -0.128186916391E+03   -0.48959E-02   -0.29440E+01  4500   0.116E+01    0.310E-01
DAV:   2    -0.128192529633E+03   -0.56132E-02   -0.85556E-02  4740   0.121E+00    0.252E-01
DAV:   3    -0.128192131343E+03    0.39829E-03   -0.91251E-03  4880   0.159E+00    0.203E-01
DAV:   4    -0.128191701070E+03    0.43027E-03   -0.57631E-03  5790   0.181E+00    0.129E-01
DAV:   5    -0.128190622940E+03    0.10781E-02   -0.46813E-03  8220   0.130E+00    0.558E-02
DAV:   6    -0.128190519596E+03    0.10334E-03   -0.12686E-03  6910   0.452E-01    0.238E-02
DAV:   7    -0.128190537830E+03   -0.18235E-04   -0.39451E-04  4860   0.122E-01    0.178E-02
DAV:   8    -0.128190536373E+03    0.14578E-05   -0.91136E-05  4650   0.679E-02
  78 F= -.12819054E+03 E0= -.12815076E+03  d E =-.851305E-02
quench:  g(F)=  0.000E+00 g(S)=  0.000E+00 dE (1.order)= 0.000E+00
 bond charge predicted
       N       E                     dE             d eps       ncg     rms          rms(c)
DAV:   1    -0.128188686347E+03    0.18515E-02   -0.18828E+00  4500   0.267E+00    0.723E-02
DAV:   2    -0.128189550741E+03   -0.86439E-03   -0.10302E-02  4570   0.352E-01    0.593E-02
DAV:   3    -0.128189539556E+03    0.11186E-04   -0.74018E-04  4840   0.257E-01    0.412E-02
DAV:   4    -0.128189503669E+03    0.35886E-04   -0.12229E-04  4760   0.173E-01    0.285E-02
DAV:   5    -0.128189482168E+03    0.21501E-04   -0.96563E-05  5570   0.108E-01    0.127E-02
DAV:   6    -0.128189485659E+03   -0.34908E-05   -0.51070E-05  3160   0.162E-01
  79 F= -.12818949E+03 E0= -.12814971E+03  d E =0.105071E-02
quench:  g(F)=  0.000E+00 g(S)=  0.000E+00 dE (1.order)= 0.000E+00
 bond charge predicted
       N       E                     dE             d eps       ncg     rms          rms(c)
DAV:   1    -0.128179826326E+03    0.96558E-02   -0.15488E+01  4510   0.813E+00    0.209E-01
DAV:   2    -0.128184114798E+03   -0.42885E-02   -0.55882E-02  4750   0.778E-01    0.165E-01
DAV:   3    -0.128183610418E+03    0.50438E-03   -0.27537E-03  4860   0.579E-01    0.119E-01
DAV:   4    -0.128183212437E+03    0.39798E-03   -0.10962E-03  4920   0.560E-01    0.695E-02
DAV:   5    -0.128183194027E+03    0.18410E-04   -0.93969E-04  7100   0.500E-01    0.426E-02
DAV:   6    -0.128183137213E+03    0.56814E-04   -0.49131E-04  5720   0.484E-01    0.186E-02
DAV:   7    -0.128183110400E+03    0.26813E-04   -0.84855E-05  4060   0.165E-01    0.754E-03
DAV:   8    -0.128183114225E+03   -0.38252E-05   -0.64652E-05  4710   0.456E-02
  80 F= -.12818311E+03 E0= -.12814318E+03  d E =0.637143E-02
quench:  g(F)=  0.000E+00 g(S)=  0.000E+00 dE (1.order)= 0.000E+00
 bond charge predicted
       N       E                     dE             d eps       ncg     rms          rms(c)
DAV:   1    -0.128174535231E+03    0.85752E-02   -0.14387E+01  4500   0.789E+00    0.203E-01
DAV:   2    -0.128178003301E+03   -0.34681E-02   -0.47073E-02  4740   0.710E-01    0.157E-01
DAV:   3    -0.128177479693E+03    0.52361E-03   -0.21259E-03  5240   0.620E-01    0.113E-01
DAV:   4    -0.128177465380E+03    0.14313E-04   -0.17601E-03  5290   0.999E-01    0.851E-02
DAV:   5    -0.128177212109E+03    0.25327E-03   -0.22331E-03  8480   0.101E+00    0.533E-02
DAV:   6    -0.128177020229E+03    0.19188E-03   -0.61272E-04  7830   0.436E-01    0.119E-02
DAV:   7    -0.128177029382E+03   -0.91535E-05   -0.15973E-04  4640   0.533E-02    0.109E-02
DAV:   8    -0.128177028555E+03    0.82697E-06   -0.17917E-05  2980   0.265E-02
  81 F= -.12817703E+03 E0= -.12813709E+03  d E =0.608567E-02
quench:  g(F)=  0.000E+00 g(S)=  0.000E+00 dE (1.order)= 0.000E+00
 bond charge predicted
       N       E                     dE             d eps       ncg     rms          rms(c)
DAV:   1    -0.128128022693E+03    0.49007E-01   -0.11922E+02  4500   0.230E+01    0.615E-01
DAV:   2    -0.128162176283E+03   -0.34154E-01   -0.45499E-01  4810   0.287E+00    0.556E-01
DAV:   3    -0.128158880764E+03    0.32955E-02   -0.36756E-02  4860   0.284E+00    0.363E-01
DAV:   4    -0.128158901916E+03   -0.21152E-04   -0.18898E-02  5730   0.310E+00    0.300E-01
DAV:   5    -0.128154240442E+03    0.46615E-02   -0.18822E-02  7150   0.296E+00    0.167E-01
DAV:   6    -0.128153436164E+03    0.80428E-03   -0.78066E-03  6950   0.110E+00    0.589E-02
DAV:   7    -0.128153465175E+03   -0.29011E-04   -0.18548E-03  4810   0.290E-01    0.391E-02
DAV:   8    -0.128153478420E+03   -0.13246E-04   -0.70587E-04  4700   0.167E-01    0.277E-02
DAV:   9    -0.128153467298E+03    0.11122E-04   -0.13038E-04  4640   0.107E-01    0.168E-02
DAV:  10    -0.128153465723E+03    0.15759E-05   -0.33744E-05  3850   0.861E-02
  82 F= -.12815347E+03 E0= -.12811283E+03  d E =0.235628E-01
quench:  g(F)=  0.000E+00 g(S)=  0.000E+00 dE (1.order)= 0.000E+00
 bond charge predicted
       N       E                     dE             d eps       ncg     rms          rms(c)
[...]
DAV:   1    -0.127838605620E+03    0.67666E-01   -0.13596E+02  4500   0.240E+01    0.637E-01
DAV:   2    -0.127886908434E+03   -0.48303E-01   -0.59914E-01  5180   0.317E+00    0.585E-01
DAV:   3    -0.127884031986E+03    0.28764E-02   -0.45587E-02  4980   0.328E+00    0.396E-01
DAV:   4    -0.127882667698E+03    0.13643E-02   -0.20210E-02  5570   0.317E+00    0.329E-01
DAV:   5    -0.127878233753E+03    0.44339E-02   -0.18047E-02  7330   0.265E+00    0.171E-01
DAV:   6    -0.127877434381E+03    0.79937E-03   -0.99329E-03  6670   0.111E+00    0.629E-02
DAV:   7    -0.127877525466E+03   -0.91086E-04   -0.25357E-03  4960   0.307E-01    0.445E-02
DAV:   8    -0.127877506507E+03    0.18959E-04   -0.77765E-04  4690   0.197E-01    0.288E-02
DAV:   9    -0.127877499104E+03    0.74026E-05   -0.11518E-04  4740   0.125E-01    0.178E-02
DAV:  10    -0.127877496093E+03    0.30117E-05   -0.36879E-05  3810   0.934E-02
 143 F= -.12787750E+03 E0= -.12783906E+03  d E =0.287689E-01
quench:  g(F)=  0.000E+00 g(S)=  0.000E+00 dE (1.order)= 0.000E+00
 bond charge predicted
       N       E                     dE             d eps       ncg     rms          rms(c)
DAV:   1    -0.127825179030E+03    0.52320E-01   -0.69276E+01  4500   0.181E+01    0.566E-01
DAV:   2    -0.127852075304E+03   -0.26896E-01   -0.33210E-01  4860   0.341E+00    0.550E-01
DAV:   3    -0.127851662502E+03    0.41280E-03   -0.58400E-02  4890   0.321E+00    0.334E-01
DAV:   4    -0.127854432634E+03   -0.27701E-02   -0.21467E-02  5000   0.328E+00    0.336E-01
DAV:   5    -0.127848761836E+03    0.56708E-02   -0.14332E-02  5660   0.273E+00    0.815E-02
DAV:   6    -0.127848771200E+03   -0.93646E-05   -0.42664E-03  6360   0.646E-01    0.407E-02
DAV:   7    -0.127848876162E+03   -0.10496E-03   -0.18159E-03  4750   0.301E-01    0.385E-02
DAV:   8    -0.127848883506E+03   -0.73440E-05   -0.30175E-04  4720   0.115E-01    0.304E-02
DAV:   9    -0.127848862661E+03    0.20845E-04   -0.65258E-05  4680   0.891E-02    0.157E-02
DAV:  10    -0.127848856187E+03    0.64736E-05   -0.32104E-05  3270   0.621E-02
 144 F= -.12784886E+03 E0= -.12781115E+03  d E =0.286399E-01
quench:  g(F)=  0.000E+00 g(S)=  0.000E+00 dE (1.order)= 0.000E+00
 bond charge predicted
       N       E                     dE             d eps       ncg     rms          rms(c)
DAV:   1    -0.127710373610E+03    0.13849E+00   -0.39069E+02  4500   0.436E+01    0.135E+00
DAV:   2    -0.127867821563E+03   -0.15745E+00   -0.20523E+00  4990   0.954E+00    0.151E+00
DAV:   3    -0.127844570472E+03    0.23251E-01   -0.30375E-01  4970   0.743E+00    0.682E-01
DAV:   4    -0.127859166659E+03   -0.14596E-01   -0.10282E-01  6170   0.638E+00    0.703E-01
DAV:   5    -0.127826868969E+03    0.32298E-01   -0.87266E-02  5290   0.635E+00    0.285E-01
DAV:   6    -0.127828371806E+03   -0.15028E-02   -0.39387E-02  5690   0.134E+00    0.168E-01
DAV:   7    -0.127827871157E+03    0.50065E-03   -0.51278E-03  4840   0.720E-01    0.698E-02
DAV:   8    -0.127828016792E+03   -0.14564E-03   -0.28932E-03  4730   0.326E-01    0.539E-02
DAV:   9    -0.127828007630E+03    0.91618E-05   -0.78836E-04  4690   0.204E-01    0.223E-02
DAV:  10    -0.127828005687E+03    0.19433E-05   -0.84240E-05  4700   0.971E-02
 145 F= -.12782801E+03 E0= -.12778953E+03  d E =0.208505E-01
quench:  g(F)=  0.000E+00 g(S)=  0.000E+00 dE (1.order)= 0.000E+00
 bond charge predicted
       N       E                     dE             d eps       ncg     rms          rms(c)
DAV:   1    -0.127846747749E+03   -0.18740E-01   -0.70493E+01  4500   0.181E+01    0.527E-01
DAV:   2    -0.127862985080E+03   -0.16237E-01   -0.23999E-01  4720   0.266E+00    0.479E-01
DAV:   3    -0.127861883418E+03    0.11017E-02   -0.38280E-02  4780   0.294E+00    0.324E-01
DAV:   4    -0.127862496278E+03   -0.61286E-03   -0.18957E-02  5450   0.309E+00    0.284E-01
DAV:   5    -0.127857797895E+03    0.46984E-02   -0.13444E-02  7310   0.243E+00    0.828E-02
DAV:   6    -0.127857916192E+03   -0.11830E-03   -0.48899E-03  6110   0.579E-01    0.438E-02
DAV:   7    -0.127857978037E+03   -0.61845E-04   -0.12551E-03  4680   0.183E-01    0.314E-02
DAV:   8    -0.127857966085E+03    0.11952E-04   -0.15012E-04  4720   0.101E-01    0.231E-02
DAV:   9    -0.127857955060E+03    0.11025E-04   -0.53688E-05  4560   0.721E-02    0.119E-02
DAV:  10    -0.127857951901E+03    0.31586E-05   -0.19255E-05  2750   0.688E-02
 146 F= -.12785795E+03 E0= -.12781973E+03  d E =-.299462E-01
quench:  g(F)=  0.000E+00 g(S)=  0.000E+00 dE (1.order)= 0.000E+00
 bond charge predicted
       N       E                     dE             d eps       ncg     rms          rms(c)
DAV:   1    -0.127857400503E+03    0.55456E-03   -0.20449E-01  4730   0.973E-01    0.267E-02
DAV:   2    -0.127857455197E+03   -0.54695E-04   -0.73027E-04  4610   0.122E-01    0.216E-02
DAV:   3    -0.127857453625E+03    0.15721E-05   -0.85651E-05  4800   0.119E-01
 147 F= -.12785745E+03 E0= -.12781920E+03  d E =0.498276E-03
quench:  g(F)=  0.000E+00 g(S)=  0.000E+00 dE (1.order)= 0.000E+00
 bond charge predicted
       N       E                     dE             d eps       ncg     rms          rms(c)
DAV:   1    -0.127817114009E+03    0.40341E-01   -0.91884E+01  4500   0.207E+01    0.585E-01
DAV:   2    -0.127836476584E+03   -0.19363E-01   -0.29207E-01  4760   0.297E+00    0.548E-01
DAV:   3    -0.127834120035E+03    0.23565E-02   -0.41868E-02  4950   0.305E+00    0.349E-01
DAV:   4    -0.127836219413E+03   -0.20994E-02   -0.25102E-02  5970   0.345E+00    0.325E-01
DAV:   5    -0.127829142796E+03    0.70766E-02   -0.19789E-02  7790   0.290E+00    0.990E-02
DAV:   6    -0.127829325407E+03   -0.18261E-03   -0.57227E-03  6100   0.622E-01    0.578E-02
DAV:   7    -0.127829345889E+03   -0.20482E-04   -0.12626E-03  4690   0.212E-01    0.321E-02
DAV:   8    -0.127829338038E+03    0.78504E-05   -0.26905E-04  4690   0.118E-01    0.240E-02
DAV:   9    -0.127829329336E+03    0.87020E-05   -0.62263E-05  4700   0.863E-02
 148 F= -.12782933E+03 E0= -.12779073E+03  d E =0.281243E-01
quench:  g(F)=  0.000E+00 g(S)=  0.000E+00 dE (1.order)= 0.000E+00
 bond charge predicted
       N       E                     dE             d eps       ncg     rms          rms(c)
DAV:   1    -0.127710395634E+03    0.11894E+00   -0.20138E+02  4500   0.310E+01    0.947E-01
DAV:   2    -0.127780131217E+03   -0.69736E-01   -0.90983E-01  5020   0.598E+00    0.972E-01
DAV:   3    -0.127774010465E+03    0.61208E-02   -0.15141E-01  4930   0.538E+00    0.521E-01
DAV:   4    -0.127782569256E+03   -0.85588E-02   -0.59793E-02  5370   0.531E+00    0.536E-01
DAV:   5    -0.127764211732E+03    0.18358E-01   -0.43959E-02  5610   0.447E+00    0.153E-01
DAV:   6    -0.127765259464E+03   -0.10477E-02   -0.17836E-02  5130   0.874E-01    0.103E-01
DAV:   7    -0.127765308486E+03   -0.49022E-04   -0.33033E-03  4770   0.414E-01    0.588E-02
DAV:   8    -0.127765266845E+03    0.41641E-04   -0.63694E-04  4770   0.178E-01    0.404E-02
DAV:   9    -0.127765234396E+03    0.32449E-04   -0.17682E-04  4610   0.102E-01    0.211E-02
DAV:  10    -0.127765220189E+03    0.14207E-04   -0.35551E-05  3380   0.106E-01    0.946E-03
DAV:  11    -0.127765220551E+03   -0.36129E-06   -0.27532E-05  3160   0.475E-02
 149 F= -.12776522E+03 E0= -.12772770E+03  d E =0.641088E-01
quench:  g(F)=  0.000E+00 g(S)=  0.000E+00 dE (1.order)= 0.000E+00
 bond charge predicted
       N       E                     dE             d eps       ncg     rms          rms(c)
DAV:   1    -0.127803603781E+03   -0.38384E-01   -0.39620E+01  4500   0.136E+01    0.385E-01
DAV:   2    -0.127813221927E+03   -0.96181E-02   -0.13864E-01  4600   0.169E+00    0.325E-01
DAV:   3    -0.127812259084E+03    0.96284E-03   -0.14630E-02  4820   0.163E+00    0.228E-01
DAV:   4    -0.127811596248E+03    0.66284E-03   -0.57037E-03  6720   0.156E+00    0.126E-01
DAV:   5    -0.127811149455E+03    0.44679E-03   -0.67962E-03  6480   0.180E+00    0.114E-01
DAV:   6    -0.127810484426E+03    0.66503E-03   -0.19934E-03  7160   0.840E-01    0.255E-02
DAV:   7    -0.127810529357E+03   -0.44931E-04   -0.68447E-04  4860   0.127E-01    0.195E-02
DAV:   8    -0.127810533365E+03   -0.40076E-05   -0.12676E-04  4600   0.776E-02    0.144E-02
DAV:   9    -0.127810527853E+03    0.55120E-05   -0.14689E-05  2910   0.376E-02
 150 F= -.12781053E+03 E0= -.12777256E+03  d E =-.453073E-01
quench:  g(F)=  0.000E+00 g(S)=  0.000E+00 dE (1.order)= 0.000E+00
 bond charge predicted
       N       E                     dE             d eps       ncg     rms          rms(c)
DAV:   1    -0.127820463430E+03   -0.99301E-02   -0.53616E+00  4500   0.500E+00    0.149E-01
DAV:   2    -0.127822459657E+03   -0.19962E-02   -0.24764E-02  4610   0.754E-01    0.124E-01
DAV:   3    -0.127822497602E+03   -0.37945E-04   -0.31287E-03  4750   0.683E-01    0.960E-02
DAV:   4    -0.127822392159E+03    0.10544E-03   -0.75297E-04  4790   0.610E-01    0.548E-02
DAV:   5    -0.127822310841E+03    0.81318E-04   -0.73981E-04  5330   0.637E-01    0.298E-02
DAV:   6    -0.127822250789E+03    0.60053E-04   -0.24688E-04  6980   0.274E-01    0.855E-03
DAV:   7    -0.127822255770E+03   -0.49813E-05   -0.85977E-05  4760   0.524E-02
 151 F= -.12782226E+03 E0= -.12778399E+03  d E =-.117279E-01
quench:  g(F)=  0.000E+00 g(S)=  0.000E+00 dE (1.order)= 0.000E+00
 bond charge predicted
       N       E                     dE             d eps       ncg     rms          rms(c)
DAV:   1    -0.127821015280E+03    0.12355E-02   -0.28698E+00  4500   0.366E+00    0.104E-01
DAV:   2    -0.127821776969E+03   -0.76169E-03   -0.10248E-02  4810   0.470E-01    0.842E-02
DAV:   3    -0.127821754953E+03    0.22016E-04   -0.12309E-03  4920   0.481E-01    0.704E-02
DAV:   4    -0.127821709681E+03    0.45272E-04   -0.54092E-04  5310   0.510E-01    0.465E-02
DAV:   5    -0.127821625882E+03    0.83799E-04   -0.42263E-04  6520   0.459E-01    0.171E-02
DAV:   6    -0.127821606738E+03    0.19144E-04   -0.78152E-05  3580   0.148E-01    0.807E-03
DAV:   7    -0.127821612356E+03   -0.56179E-05   -0.80723E-05  4590   0.533E-02
 152 F= -.12782161E+03 E0= -.12778321E+03  d E =0.643414E-03
quench:  g(F)=  0.000E+00 g(S)=  0.000E+00 dE (1.order)= 0.000E+00
 bond charge predicted
       N       E                     dE             d eps       ncg     rms          rms(c)
DAV:   1    -0.127809646341E+03    0.11960E-01   -0.16107E+01  4500   0.865E+00    0.236E-01
DAV:   2    -0.127812852375E+03   -0.32060E-02   -0.47613E-02  4790   0.957E-01    0.192E-01
DAV:   3    -0.127812401070E+03    0.45131E-03   -0.50400E-03  4750   0.924E-01    0.147E-01
DAV:   4    -0.127811758373E+03    0.64270E-03   -0.17403E-03  6590   0.505E-01    0.346E-02
DAV:   5    -0.127811759822E+03   -0.14491E-05   -0.36935E-04  4830   0.119E-01    0.218E-02
DAV:   6    -0.127811759734E+03    0.88163E-07   -0.83995E-05  4850   0.158E-01
 153 F= -.12781176E+03 E0= -.12777318E+03  d E =0.985262E-02
quench:  g(F)=  0.000E+00 g(S)=  0.000E+00 dE (1.order)= 0.000E+00
 bond charge predicted
       N       E                     dE             d eps       ncg     rms          rms(c)
DAV:   1    -0.127796995694E+03    0.14764E-01   -0.21278E+01  4500   0.995E+00    0.272E-01
DAV:   2    -0.127800025519E+03   -0.30298E-02   -0.52616E-02  4560   0.106E+00    0.223E-01
DAV:   3    -0.127799600346E+03    0.42517E-03   -0.70593E-03  4900   0.135E+00    0.177E-01
DAV:   4    -0.127799717702E+03   -0.11736E-03   -0.58470E-03  6770   0.167E+00    0.127E-01
DAV:   5    -0.127798484205E+03    0.12335E-02   -0.41762E-03  8690   0.127E+00    0.464E-02
DAV:   6    -0.127798457321E+03    0.26884E-04   -0.73173E-04  6620   0.292E-01    0.205E-02
DAV:   7    -0.127798466024E+03   -0.87031E-05   -0.22325E-04  4670   0.795E-02    0.121E-02
DAV:   8    -0.127798464656E+03    0.13685E-05   -0.29146E-05  3320   0.446E-02
 154 F= -.12779846E+03 E0= -.12775971E+03  d E =0.132951E-01
quench:  g(F)=  0.000E+00 g(S)=  0.000E+00 dE (1.order)= 0.000E+00
 bond charge predicted
       N       E                     dE             d eps       ncg     rms          rms(c)
DAV:   1    -0.127773639615E+03    0.24826E-01   -0.82382E+01  4500   0.197E+01    0.569E-01
DAV:   2    -0.127788975328E+03   -0.15336E-01   -0.24479E-01  4730   0.274E+00    0.513E-01
DAV:   3    -0.127787385137E+03    0.15902E-02   -0.41482E-02  4920   0.310E+00    0.353E-01
DAV:   4    -0.127789242645E+03   -0.18575E-02   -0.25619E-02  5910   0.351E+00    0.313E-01
DAV:   5    -0.127782501298E+03    0.67413E-02   -0.18843E-02  8310   0.270E+00    0.948E-02
DAV:   6    -0.127782652763E+03   -0.15147E-03   -0.46626E-03  5600   0.541E-01    0.582E-02
DAV:   7    -0.127782672140E+03   -0.19377E-04   -0.11398E-03  4890   0.216E-01    0.324E-02
DAV:   8    -0.127782658886E+03    0.13254E-04   -0.21306E-04  4720   0.111E-01    0.229E-02
DAV:   9    -0.127782651820E+03    0.70664E-05   -0.51555E-05  4610   0.743E-02
 155 F= -.12778265E+03 E0= -.12774439E+03  d E =0.158128E-01
quench:  g(F)=  0.000E+00 g(S)=  0.000E+00 dE (1.order)= 0.000E+00
 bond charge predicted
       N       E                     dE             d eps       ncg     rms          rms(c)
DAV:   1    -0.127786930308E+03   -0.42714E-02   -0.51399E+00  4500   0.492E+00    0.144E-01
DAV:   2    -0.127788299669E+03   -0.13694E-02   -0.18044E-02  4580   0.705E-01    0.119E-01
DAV:   3    -0.127788563481E+03   -0.26381E-03   -0.40381E-03  4720   0.102E+00    0.119E-01
DAV:   4    -0.127788272230E+03    0.29125E-03   -0.18807E-03  4930   0.950E-01    0.742E-02
DAV:   5    -0.127788068956E+03    0.20327E-03   -0.66673E-04  8170   0.511E-01    0.250E-02
DAV:   6    -0.127788064535E+03    0.44215E-05   -0.17965E-04  5740   0.129E-01    0.102E-02
DAV:   7    -0.127788069487E+03   -0.49525E-05   -0.86380E-05  4710   0.593E-02
 156 F= -.12778807E+03 E0= -.12774940E+03  d E =-.541767E-02
quench:  g(F)=  0.000E+00 g(S)=  0.000E+00 dE (1.order)= 0.000E+00
 bond charge predicted
       N       E                     dE             d eps       ncg     rms          rms(c)
DAV:   1    -0.127788420250E+03   -0.35572E-03   -0.13870E-01  4520   0.804E-01    0.240E-02
DAV:   2    -0.127788474033E+03   -0.53783E-04   -0.65281E-04  4590   0.117E-01    0.193E-02
DAV:   3    -0.127788474685E+03   -0.65182E-06   -0.63059E-05  4740   0.114E-01
 157 F= -.12778847E+03 E0= -.12774987E+03  d E =-.405197E-03
quench:  g(F)=  0.000E+00 g(S)=  0.000E+00 dE (1.order)= 0.000E+00
 bond charge predicted
       N       E                     dE             d eps       ncg     rms          rms(c)
DAV:   1    -0.127788074401E+03    0.39963E-03   -0.94676E-02  4530   0.679E-01    0.223E-02
DAV:   2    -0.127788157632E+03   -0.83231E-04   -0.43945E-04  5160   0.370E-01    0.365E-02
DAV:   3    -0.127788085926E+03    0.71705E-04   -0.25573E-04  4760   0.318E-01    0.145E-02
DAV:   4    -0.127788090434E+03   -0.45076E-05   -0.96083E-05  4580   0.764E-02
 158 F= -.12778809E+03 E0= -.12774949E+03  d E =0.384251E-03
quench:  g(F)=  0.000E+00 g(S)=  0.000E+00 dE (1.order)= 0.000E+00
 bond charge predicted
       N       E                     dE             d eps       ncg     rms          rms(c)
DAV:   1    -0.127786187041E+03    0.18989E-02   -0.89938E-01  4560   0.206E+00    0.575E-02
DAV:   2    -0.127786306230E+03   -0.11919E-03   -0.21780E-03  4730   0.196E-01    0.424E-02
DAV:   3    -0.127786267258E+03    0.38973E-04   -0.25039E-04  4920   0.233E-01    0.376E-02
DAV:   4    -0.127786242842E+03    0.24416E-04   -0.12942E-04  5240   0.208E-01    0.156E-02
DAV:   5    -0.127786239920E+03    0.29219E-05   -0.43886E-05  3030   0.139E-01
 159 F= -.12778624E+03 E0= -.12774765E+03  d E =0.185051E-02
quench:  g(F)=  0.000E+00 g(S)=  0.000E+00 dE (1.order)= 0.000E+00
 bond charge predicted
       N       E                     dE             d eps       ncg     rms          rms(c)
DAV:   1    -0.127782183873E+03    0.40590E-02   -0.29316E+00  4500   0.358E+00    0.101E-01
DAV:   2    -0.127783172318E+03   -0.98844E-03   -0.12886E-02  4710   0.458E-01    0.784E-02
DAV:   3    -0.127783166248E+03    0.60706E-05   -0.13476E-03  4910   0.395E-01    0.607E-02
DAV:   4    -0.127783101551E+03    0.64697E-04   -0.30021E-04  4930   0.334E-01    0.347E-02
DAV:   5    -0.127783157904E+03   -0.56353E-04   -0.44518E-04  5280   0.472E-01    0.388E-02
DAV:   6    -0.127783059275E+03    0.98629E-04   -0.25403E-04  6350   0.322E-01    0.627E-03
DAV:   7    -0.127783064431E+03   -0.51567E-05   -0.65344E-05  4660   0.425E-02
 160 F= -.12778306E+03 E0= -.12774429E+03  d E =0.317549E-02
quench:  g(F)=  0.000E+00 g(S)=  0.000E+00 dE (1.order)= 0.000E+00
 bond charge predicted
       N       E                     dE             d eps       ncg     rms          rms(c)
DAV:   1    -0.127776542197E+03    0.65171E-02   -0.90416E+00  4500   0.649E+00    0.185E-01
DAV:   2    -0.127778233018E+03   -0.16908E-02   -0.26655E-02  4610   0.814E-01    0.154E-01
DAV:   3    -0.127778087347E+03    0.14567E-03   -0.41068E-03  4770   0.828E-01    0.116E-01
DAV:   4    -0.127777983943E+03    0.10340E-03   -0.15860E-03  5810   0.820E-01    0.670E-02
DAV:   5    -0.127777724211E+03    0.25973E-03   -0.15879E-03  6900   0.832E-01    0.408E-02
DAV:   6    -0.127777663324E+03    0.60886E-04   -0.39067E-04  6530   0.300E-01    0.111E-02
DAV:   7    -0.127777673190E+03   -0.98653E-05   -0.14877E-04  4730   0.540E-02    0.865E-03
DAV:   8    -0.127777672705E+03    0.48518E-06   -0.13610E-05  2700   0.287E-02
 161 F= -.12777767E+03 E0= -.12773902E+03  d E =0.539173E-02
quench:  g(F)=  0.000E+00 g(S)=  0.000E+00 dE (1.order)= 0.000E+00
 bond charge predicted
       N       E                     dE             d eps       ncg     rms          rms(c)
DAV:   1    -0.127777378027E+03    0.29516E-03   -0.13337E+00  4500   0.248E+00    0.710E-02
DAV:   2    -0.127777807081E+03   -0.42905E-03   -0.53628E-03  4610   0.394E-01    0.659E-02
DAV:   3    -0.127777816449E+03   -0.93675E-05   -0.83837E-04  4760   0.395E-01    0.462E-02
DAV:   4    -0.127777840514E+03   -0.24065E-04   -0.42122E-04  4820   0.445E-01    0.411E-02
DAV:   5    -0.127777748503E+03    0.92011E-04   -0.23831E-04  4800   0.346E-01    0.913E-03
DAV:   6    -0.127777749149E+03   -0.64586E-06   -0.71129E-05  4670   0.809E-02
 162 F= -.12777775E+03 E0= -.12773910E+03  d E =-.764440E-04
quench:  g(F)=  0.000E+00 g(S)=  0.000E+00 dE (1.order)= 0.000E+00
 bond charge predicted
       N       E                     dE             d eps       ncg     rms          rms(c)
DAV:   1    -0.127775757192E+03    0.19913E-02   -0.18004E+00  4500   0.291E+00    0.828E-02
DAV:   2    -0.127776096483E+03   -0.33929E-03   -0.51824E-03  4780   0.327E-01    0.621E-02
DAV:   3    -0.127776061805E+03    0.34677E-04   -0.66966E-04  5030   0.367E-01    0.584E-02
DAV:   4    -0.127775998598E+03    0.63208E-04   -0.26870E-04  6580   0.277E-01    0.255E-02
DAV:   5    -0.127775986121E+03    0.12477E-04   -0.99996E-05  4440   0.195E-01    0.156E-02
DAV:   6    -0.127775978409E+03    0.77119E-05   -0.29314E-05  2860   0.801E-02
 163 F= -.12777598E+03 E0= -.12773733E+03  d E =0.177074E-02
quench:  g(F)=  0.000E+00 g(S)=  0.000E+00 dE (1.order)= 0.000E+00
 bond charge predicted
       N       E                     dE             d eps       ncg     rms          rms(c)
DAV:   1    -0.127777763156E+03   -0.17770E-02   -0.10051E+00  4500   0.216E+00    0.632E-02
DAV:   2    -0.127777933518E+03   -0.17036E-03   -0.28739E-03  4600   0.242E-01    0.485E-02
DAV:   3    -0.127777940445E+03   -0.69270E-05   -0.45966E-04  4880   0.356E-01    0.483E-02
DAV:   4    -0.127777902821E+03    0.37624E-04   -0.34311E-04  5090   0.406E-01    0.287E-02
DAV:   5    -0.127777858295E+03    0.44526E-04   -0.13685E-04  3750   0.262E-01    0.885E-03
DAV:   6    -0.127777860721E+03   -0.24265E-05   -0.77681E-05  5450   0.727E-02
 164 F= -.12777786E+03 E0= -.12773914E+03  d E =-.188231E-02
quench:  g(F)=  0.000E+00 g(S)=  0.000E+00 dE (1.order)= 0.000E+00
 reached required accuracy - stopping structural energy minimisation
