 running on   35 total cores
 distrk:  each k-point on   35 cores,    1 groups
 distr:  one band on    1 cores,   35 groups
 using from now: INCAR     
 vasp.5.4.1 24Jun15 (build Oct 26 2018 17:15:27) complex                        
  
 POSCAR found type information on POSCAR  Pt
 POSCAR found :  1 types and      13 ions
 scaLAPACK will be used

 ----------------------------------------------------------------------------- 
|                                                                             |
|           W    W    AA    RRRRR   N    N  II  N    N   GGGG   !!!           |
|           W    W   A  A   R    R  NN   N  II  NN   N  G    G  !!!           |
|           W    W  A    A  R    R  N N  N  II  N N  N  G       !!!           |
|           W WW W  AAAAAA  RRRRR   N  N N  II  N  N N  G  GGG   !            |
|           WW  WW  A    A  R   R   N   NN  II  N   NN  G    G                |
|           W    W  A    A  R    R  N    N  II  N    N   GGGG   !!!           |
|                                                                             |
|      For optimal performance we recommend to set                            |
|        NCORE= 4 - approx SQRT( number of cores)                             |
|      NCORE specifies how many cores store one orbital (NPAR=cpu/NCORE).     |
|      This setting can  greatly improve the performance of VASP for DFT.     |
|      The default, NPAR=number of cores might be grossly inefficient         |
|      on modern multi-core architectures or massively parallel machines.     |
|      Do your own testing !!!!                                               |
|      Unfortunately you need to use the default for GW and RPA calculations. |
|      (for HF NCORE is supported but not extensively tested yet)             |
|                                                                             |
 ----------------------------------------------------------------------------- 

 LDA part: xc-table for Ceperly-Alder, standard interpolation
 POSCAR, INCAR and KPOINTS ok, starting setup
 WARNING: small aliasing (wrap around) errors must be expected
 FFT: planning ...
 WAVECAR not read
 entering main loop
       N       E                     dE             d eps       ncg     rms          rms(c)
DAV:   1     0.866477856086E+03    0.86648E+03   -0.13953E+04   245   0.389E+02
DAV:   2     0.421223092324E+03   -0.44525E+03   -0.42318E+03   420   0.450E+01
DAV:   3     0.303082899019E+02   -0.39091E+03   -0.37699E+03   420   0.689E+01
DAV:   4    -0.503596855710E+02   -0.80668E+02   -0.74206E+02   350   0.461E+01
DAV:   5    -0.590988612512E+02   -0.87392E+01   -0.78609E+01   280   0.167E+01    0.116E+01
DAV:   6    -0.561854322481E+02    0.29134E+01   -0.15173E+01   280   0.144E+01    0.721E+00
DAV:   7    -0.587734572247E+02   -0.25880E+01   -0.44631E+01   350   0.248E+01    0.134E+01
DAV:   8    -0.564290614991E+02    0.23444E+01   -0.31082E+01   350   0.175E+01    0.753E+00
DAV:   9    -0.555449628704E+02    0.88410E+00   -0.68866E+00   350   0.860E+00    0.360E+00
DAV:  10    -0.554800315481E+02    0.64931E-01   -0.23647E+00   350   0.434E+00    0.326E+00
DAV:  11    -0.554336024451E+02    0.46429E-01   -0.12217E+00   315   0.321E+00    0.240E+00
DAV:  12    -0.554153457509E+02    0.18257E-01   -0.11030E+00   280   0.270E+00    0.184E+00
DAV:  13    -0.554163916342E+02   -0.10459E-02   -0.85210E-01   350   0.271E+00    0.169E+00
DAV:  14    -0.553804717881E+02    0.35920E-01   -0.32849E-01   280   0.197E+00    0.531E-01
DAV:  15    -0.553718055523E+02    0.86662E-02   -0.61872E-02   315   0.992E-01    0.317E-01
DAV:  16    -0.553700137891E+02    0.17918E-02   -0.13168E-02   280   0.458E-01    0.208E-01
DAV:  17    -0.553682478849E+02    0.17659E-02   -0.63995E-03   350   0.340E-01    0.124E-01
DAV:  18    -0.553682068390E+02    0.41046E-04   -0.23166E-03   245   0.196E-01    0.784E-02
DAV:  19    -0.553687348491E+02   -0.52801E-03   -0.72380E-04   245   0.132E-01    0.330E-02
DAV:  20    -0.553702029137E+02   -0.14681E-02   -0.36477E-04   210   0.792E-02    0.309E-02
DAV:  21    -0.553721655792E+02   -0.19627E-02   -0.45632E-04   245   0.838E-02    0.209E-02
DAV:  22    -0.553741077901E+02   -0.19422E-02   -0.44152E-04   210   0.582E-02    0.199E-02
DAV:  23    -0.553752427008E+02   -0.11349E-02   -0.28520E-04   245   0.479E-02    0.138E-02
DAV:  24    -0.553762602048E+02   -0.10175E-02   -0.22404E-04   210   0.395E-02    0.884E-03
DAV:  25    -0.553767582663E+02   -0.49806E-03   -0.99723E-05   280   0.280E-02    0.439E-03
DAV:  26    -0.553771765330E+02   -0.41827E-03   -0.34656E-05   175   0.169E-02    0.318E-03
DAV:  27    -0.553773826947E+02   -0.20616E-03   -0.10475E-05   210   0.112E-02    0.283E-03
DAV:  28    -0.553775995088E+02   -0.21681E-03   -0.15117E-05   140   0.106E-02    0.164E-03
DAV:  29    -0.553776916796E+02   -0.92171E-04   -0.81502E-06   210   0.709E-03
   1 F= -.55377692E+02 E0= -.55307055E+02  d E =-.553777E+02
 summed vel is now  5.204170427930421E-018 -5.204170427930421E-018
 -3.469446951953614E-018
quench:  g(F)=  0.204E+00 g(S)=  0.000E+00 dE (1.order)=-0.408E+00
 bond charge predicted
       N       E                     dE             d eps       ncg     rms          rms(c)
DAV:   1    -0.556489797047E+02   -0.27138E+00   -0.47754E+01   210   0.159E+01    0.142E+00
DAV:   2    -0.560367603572E+02   -0.38778E+00   -0.45147E+00   315   0.602E+00    0.527E+00
DAV:   3    -0.557558773616E+02    0.28088E+00   -0.37251E+00   315   0.556E+00    0.193E+00
DAV:   4    -0.557270424791E+02    0.28835E-01   -0.49641E-01   280   0.188E+00    0.111E+00
DAV:   5    -0.557145730772E+02    0.12469E-01   -0.19341E-01   280   0.115E+00    0.662E-01
DAV:   6    -0.557106017320E+02    0.39713E-02   -0.68692E-02   280   0.772E-01    0.399E-01
DAV:   7    -0.557093200833E+02    0.12816E-02   -0.35005E-02   350   0.659E-01    0.329E-01
DAV:   8    -0.557080722923E+02    0.12478E-02   -0.21791E-02   315   0.542E-01    0.191E-01
DAV:   9    -0.557076633353E+02    0.40896E-03   -0.69824E-03   280   0.292E-01    0.127E-01
DAV:  10    -0.557074185935E+02    0.24474E-03   -0.16443E-03   175   0.153E-01    0.448E-02
DAV:  11    -0.557073626743E+02    0.55919E-04   -0.48011E-04   210   0.881E-02
   2 F= -.55707363E+02 E0= -.55639622E+02  d E =-.329671E+00
 summed vel is now -1.328147661294743E-017  0.000000000000000E+000
  0.000000000000000E+000
quench:  g(F)=  0.943E-01 g(S)=  0.000E+00 dE (1.order)=-0.443E+00
 bond charge predicted
       N       E                     dE             d eps       ncg     rms          rms(c)
DAV:   1    -0.558377823457E+02   -0.13036E+00   -0.12173E+02   210   0.256E+01    0.215E+00
DAV:   2    -0.566216773246E+02   -0.78389E+00   -0.92363E+00   280   0.969E+00    0.666E+00
DAV:   3    -0.561346753775E+02    0.48700E+00   -0.63629E+00   315   0.773E+00    0.256E+00
DAV:   4    -0.560728772466E+02    0.61798E-01   -0.85204E-01   280   0.259E+00    0.151E+00
DAV:   5    -0.560494988782E+02    0.23378E-01   -0.34723E-01   280   0.166E+00    0.931E-01
DAV:   6    -0.560463938861E+02    0.31050E-02   -0.16187E-01   280   0.123E+00    0.778E-01
DAV:   7    -0.560402747545E+02    0.61191E-02   -0.96310E-02   280   0.108E+00    0.456E-01
DAV:   8    -0.560380313692E+02    0.22434E-02   -0.48770E-02   280   0.820E-01    0.316E-01
DAV:   9    -0.560371204189E+02    0.91095E-03   -0.16005E-02   280   0.452E-01    0.196E-01
DAV:  10    -0.560365477595E+02    0.57266E-03   -0.37971E-03   245   0.239E-01    0.908E-02
DAV:  11    -0.560364744007E+02    0.73359E-04   -0.15277E-03   245   0.141E-01    0.863E-02
DAV:  12    -0.560364254302E+02    0.48971E-04   -0.86129E-04   245   0.112E-01
   3 F= -.56036425E+02 E0= -.55970995E+02  d E =-.329063E+00
 summed vel is now  6.938893903907228E-018  1.040834085586084E-017
  0.000000000000000E+000
quench:  g(F)=  0.327E-01 g(S)=  0.000E+00 dE (1.order)=-0.274E+00
 bond charge predicted
       N       E                     dE             d eps       ncg     rms          rms(c)
DAV:   1    -0.559740034583E+02    0.62471E-01   -0.13426E+02   210   0.269E+01    0.179E+00
DAV:   2    -0.563288275727E+02   -0.35482E+00   -0.41975E+00   315   0.822E+00    0.227E+00
DAV:   3    -0.562772091553E+02    0.51618E-01   -0.12179E+00   315   0.447E+00    0.189E+00
DAV:   4    -0.562532959167E+02    0.23913E-01   -0.56646E-01   280   0.206E+00    0.165E+00
DAV:   5    -0.562413349869E+02    0.11961E-01   -0.27458E-01   280   0.129E+00    0.111E+00
DAV:   6    -0.562365332307E+02    0.48018E-02   -0.15180E-01   280   0.123E+00    0.847E-01
DAV:   7    -0.562334492863E+02    0.30839E-02   -0.16906E-01   280   0.121E+00    0.814E-01
DAV:   8    -0.562278721691E+02    0.55771E-02   -0.10040E-01   280   0.924E-01    0.342E-01
DAV:   9    -0.562260342460E+02    0.18379E-02   -0.25768E-02   280   0.499E-01    0.198E-01
DAV:  10    -0.562254304256E+02    0.60382E-03   -0.62102E-03   280   0.258E-01    0.867E-02
DAV:  11    -0.562252768674E+02    0.15356E-03   -0.15140E-03   280   0.157E-01    0.555E-02
DAV:  12    -0.562252895370E+02   -0.12670E-04   -0.57523E-04   175   0.103E-01
   4 F= -.56225290E+02 E0= -.56157970E+02  d E =-.188864E+00
 summed vel is now -3.469446951953614E-018  3.642919299551295E-017
  0.000000000000000E+000
quench:  g(F)=  0.110E-01 g(S)=  0.000E+00 dE (1.order)=-0.117E+00
 bond charge predicted
       N       E                     dE             d eps       ncg     rms          rms(c)
DAV:   1    -0.561790701926E+02    0.46207E-01   -0.72694E+01   210   0.197E+01    0.143E+00
DAV:   2    -0.563952935798E+02   -0.21622E+00   -0.25280E+00   280   0.569E+00    0.270E+00
DAV:   3    -0.563687418308E+02    0.26552E-01   -0.18332E+00   280   0.390E+00    0.288E+00
DAV:   4    -0.563179567713E+02    0.50785E-01   -0.96147E-01   280   0.203E+00    0.128E+00
DAV:   5    -0.563048856545E+02    0.13071E-01   -0.19374E-01   280   0.126E+00    0.850E-01
DAV:   6    -0.562994439287E+02    0.54417E-02   -0.81699E-02   280   0.908E-01    0.579E-01
DAV:   7    -0.562988353087E+02    0.60862E-03   -0.62145E-02   280   0.891E-01    0.579E-01
DAV:   8    -0.562951372544E+02    0.36981E-02   -0.54802E-02   280   0.858E-01    0.286E-01
DAV:   9    -0.562939344492E+02    0.12028E-02   -0.14649E-02   280   0.420E-01    0.130E-01
DAV:  10    -0.562936069411E+02    0.32751E-03   -0.35680E-03   315   0.210E-01    0.764E-02
DAV:  11    -0.562935188690E+02    0.88072E-04   -0.10503E-03   175   0.130E-01    0.452E-02
DAV:  12    -0.562935195234E+02   -0.65443E-06   -0.45533E-04   140   0.862E-02
   5 F= -.56293520E+02 E0= -.56225007E+02  d E =-.682300E-01
 summed vel is now  1.734723475976807E-018 -4.336808689942018E-018
  1.734723475976807E-018
quench:  g(F)=  0.111E-01 g(S)=  0.000E+00 dE (1.order)=-0.424E-01
 bond charge predicted
       N       E                     dE             d eps       ncg     rms          rms(c)
DAV:   1    -0.563129104601E+02   -0.19392E-01   -0.95518E+00   210   0.703E+00    0.538E-01
DAV:   2    -0.563547465501E+02   -0.41836E-01   -0.39699E-01   280   0.224E+00    0.172E+00
DAV:   3    -0.563359908743E+02    0.18756E-01   -0.34099E-01   245   0.175E+00    0.110E+00
DAV:   4    -0.563287904380E+02    0.72004E-02   -0.12727E-01   280   0.875E-01    0.520E-01
DAV:   5    -0.563253594431E+02    0.34310E-02   -0.37898E-02   280   0.518E-01    0.299E-01
DAV:   6    -0.563241161912E+02    0.12433E-02   -0.13339E-02   280   0.357E-01    0.163E-01
DAV:   7    -0.563241163525E+02   -0.16132E-06   -0.88918E-03   280   0.330E-01    0.190E-01
DAV:   8    -0.563236342278E+02    0.48212E-03   -0.56927E-03   245   0.273E-01    0.741E-02
DAV:   9    -0.563235223552E+02    0.11187E-03   -0.11738E-03   175   0.115E-01    0.418E-02
DAV:  10    -0.563235008852E+02    0.21470E-04   -0.27179E-04   210   0.640E-02
   6 F= -.56323501E+02 E0= -.56254486E+02  d E =-.299814E-01
 summed vel is now  0.000000000000000E+000 -1.734723475976807E-018
 -1.734723475976807E-018
quench:  g(F)=  0.432E-02 g(S)=  0.000E+00 dE (1.order)=-0.260E-01
 bond charge predicted
       N       E                     dE             d eps       ncg     rms          rms(c)
DAV:   1    -0.563363573503E+02   -0.12835E-01   -0.90608E+00   210   0.684E+00    0.355E-01
DAV:   2    -0.563537107025E+02   -0.17353E-01   -0.17517E-01   280   0.147E+00    0.620E-01
DAV:   3    -0.563539863285E+02   -0.27563E-03   -0.64960E-02   280   0.808E-01    0.699E-01
DAV:   4    -0.563511921257E+02    0.27942E-02   -0.40483E-02   280   0.505E-01    0.349E-01
DAV:   5    -0.563496908149E+02    0.15013E-02   -0.16921E-02   280   0.343E-01    0.265E-01
DAV:   6    -0.563491834134E+02    0.50740E-03   -0.11406E-02   280   0.333E-01    0.198E-01
DAV:   7    -0.563485209995E+02    0.66241E-03   -0.71768E-03   280   0.308E-01    0.910E-02
DAV:   8    -0.563483190673E+02    0.20193E-03   -0.12839E-03   175   0.168E-01    0.431E-02
DAV:   9    -0.563482985975E+02    0.20470E-04   -0.42275E-04   140   0.767E-02
   7 F= -.56348299E+02 E0= -.56279360E+02  d E =-.247977E-01
 summed vel is now  1.084202172485504E-018  1.734723475976807E-018
  1.734723475976807E-018
quench:  g(F)=  0.367E-02 g(S)=  0.000E+00 dE (1.order)=-0.308E-01
 bond charge predicted
       N       E                     dE             d eps       ncg     rms          rms(c)
DAV:   1    -0.563577238709E+02   -0.94048E-02   -0.14963E+01   210   0.880E+00    0.540E-01
DAV:   2    -0.564061991300E+02   -0.48475E-01   -0.42920E-01   280   0.216E+00    0.175E+00
DAV:   3    -0.563906983069E+02    0.15501E-01   -0.32251E-01   245   0.162E+00    0.105E+00
DAV:   4    -0.563834453418E+02    0.72530E-02   -0.10520E-01   280   0.753E-01    0.504E-01
DAV:   5    -0.563798738379E+02    0.35715E-02   -0.33128E-02   280   0.487E-01    0.305E-01
DAV:   6    -0.563791221020E+02    0.75174E-03   -0.16576E-02   280   0.440E-01    0.259E-01
DAV:   7    -0.563783978672E+02    0.72423E-03   -0.15975E-02   315   0.443E-01    0.196E-01
DAV:   8    -0.563778566025E+02    0.54126E-03   -0.62750E-03   280   0.289E-01    0.797E-02
DAV:   9    -0.563777302483E+02    0.12635E-03   -0.11393E-03   175   0.120E-01    0.492E-02
DAV:  10    -0.563776932910E+02    0.36957E-04   -0.24774E-04   210   0.684E-02
   8 F= -.56377693E+02 E0= -.56308754E+02  d E =-.293947E-01
 summed vel is now -2.602085213965211E-018  0.000000000000000E+000
  3.469446951953614E-018
quench:  g(F)=  0.308E-02 g(S)=  0.000E+00 dE (1.order)=-0.338E-01
 bond charge predicted
       N       E                     dE             d eps       ncg     rms          rms(c)
DAV:   1    -0.563793880875E+02   -0.16578E-02   -0.21553E+01   210   0.106E+01    0.619E-01
DAV:   2    -0.564363968857E+02   -0.57009E-01   -0.55560E-01   315   0.260E+00    0.155E+00
DAV:   3    -0.564256450029E+02    0.10752E-01   -0.32156E-01   245   0.171E+00    0.120E+00
DAV:   4    -0.564169531997E+02    0.86918E-02   -0.13786E-01   280   0.885E-01    0.626E-01
DAV:   5    -0.564125897357E+02    0.43635E-02   -0.47707E-02   280   0.564E-01    0.387E-01
DAV:   6    -0.564113666000E+02    0.12231E-02   -0.20325E-02   315   0.498E-01    0.285E-01
DAV:   7    -0.564098165182E+02    0.15501E-02   -0.14177E-02   280   0.470E-01    0.140E-01
DAV:   8    -0.564095387653E+02    0.27775E-03   -0.35077E-03   245   0.257E-01    0.897E-02
DAV:   9    -0.564094373765E+02    0.10139E-03   -0.13751E-03   140   0.129E-01    0.614E-02
DAV:  10    -0.564093858523E+02    0.51524E-04   -0.41855E-04   140   0.794E-02
   9 F= -.56409386E+02 E0= -.56340792E+02  d E =-.316926E-01
 summed vel is now  4.770489558936220E-018  1.734723475976807E-017
 -1.734723475976807E-018
quench:  g(F)=  0.252E-02 g(S)=  0.000E+00 dE (1.order)=-0.341E-01
 bond charge predicted
       N       E                     dE             d eps       ncg     rms          rms(c)
DAV:   1    -0.564020724772E+02    0.73649E-02   -0.26952E+01   210   0.118E+01    0.827E-01
DAV:   2    -0.565159740543E+02   -0.11390E+00   -0.10617E+00   315   0.332E+00    0.278E+00
DAV:   3    -0.564669626383E+02    0.49011E-01   -0.91133E-01   280   0.271E+00    0.160E+00
DAV:   4    -0.564493337145E+02    0.17629E-01   -0.25889E-01   280   0.115E+00    0.685E-01
DAV:   5    -0.564423957559E+02    0.69380E-02   -0.54020E-02   280   0.635E-01    0.401E-01
DAV:   6    -0.564418022678E+02    0.59349E-03   -0.32535E-02   350   0.597E-01    0.397E-01
DAV:   7    -0.564401113786E+02    0.16909E-02   -0.33926E-02   315   0.627E-01    0.252E-01
DAV:   8    -0.564391831096E+02    0.92827E-03   -0.10226E-02   280   0.361E-01    0.117E-01
DAV:   9    -0.564390018890E+02    0.18122E-03   -0.17122E-03   210   0.143E-01    0.609E-02
DAV:  10    -0.564389222044E+02    0.79685E-04   -0.49930E-04   140   0.921E-02
  10 F= -.56438922E+02 E0= -.56370583E+02  d E =-.295364E-01
 summed vel is now  5.204170427930421E-018 -4.336808689942018E-018
  0.000000000000000E+000
quench:  g(F)=  0.250E-02 g(S)=  0.000E+00 dE (1.order)=-0.292E-01
 bond charge predicted
       N       E                     dE             d eps       ncg     rms          rms(c)
DAV:   1    -0.564278994355E+02    0.11102E-01   -0.19798E+01   210   0.102E+01    0.687E-01
DAV:   2    -0.564997566916E+02   -0.71857E-01   -0.84518E-01   280   0.318E+00    0.198E+00
DAV:   3    -0.564730174376E+02    0.26739E-01   -0.65618E-01   280   0.230E+00    0.130E+00
DAV:   4    -0.564624222748E+02    0.10595E-01   -0.17642E-01   280   0.108E+00    0.731E-01
DAV:   5    -0.564567401843E+02    0.56821E-02   -0.47044E-02   280   0.637E-01    0.321E-01
DAV:   6    -0.564549607428E+02    0.17794E-02   -0.14776E-02   280   0.407E-01    0.256E-01
DAV:   7    -0.564550445772E+02   -0.83834E-04   -0.17882E-02   280   0.433E-01    0.315E-01
DAV:   8    -0.564541238089E+02    0.92077E-03   -0.14267E-02   280   0.371E-01    0.126E-01
DAV:   9    -0.564537457093E+02    0.37810E-03   -0.29868E-03   245   0.192E-01    0.620E-02
DAV:  10    -0.564536780278E+02    0.67682E-04   -0.58492E-04   140   0.881E-02
  11 F= -.56453678E+02 E0= -.56385848E+02  d E =-.147558E-01
 summed vel is now  4.336808689942018E-019  1.734723475976807E-018
 -4.336808689942018E-019
quench:  g(F)=  0.511E-02 g(S)=  0.000E+00 dE (1.order)=-0.102E-01
 bond charge predicted
       N       E                     dE             d eps       ncg     rms          rms(c)
DAV:   1    -0.564609507768E+02   -0.72051E-02   -0.12158E+00   210   0.251E+00    0.290E-01
DAV:   2    -0.564799540364E+02   -0.19003E-01   -0.18128E-01   280   0.116E+00    0.145E+00
DAV:   3    -0.564667788242E+02    0.13175E-01   -0.19719E-01   280   0.112E+00    0.577E-01
DAV:   4    -0.564630946109E+02    0.36842E-02   -0.28294E-02   280   0.455E-01    0.161E-01
DAV:   5    -0.564620695386E+02    0.10251E-02   -0.42712E-03   245   0.220E-01    0.103E-01
DAV:   6    -0.564619138612E+02    0.15568E-03   -0.12115E-03   175   0.129E-01    0.511E-02
DAV:   7    -0.564618770714E+02    0.36790E-04   -0.79287E-04   140   0.115E-01
  12 F= -.56461877E+02 E0= -.56394186E+02  d E =-.819904E-02
 summed vel is now -4.336808689942018E-019  1.734723475976807E-018
  5.421010862427522E-019
quench:  g(F)=  0.212E-02 g(S)=  0.000E+00 dE (1.order)=-0.103E-01
 bond charge predicted
       N       E                     dE             d eps       ncg     rms          rms(c)
DAV:   1    -0.564669247235E+02   -0.50109E-02   -0.29414E+00   210   0.391E+00    0.369E-01
DAV:   2    -0.564953453798E+02   -0.28421E-01   -0.27319E-01   280   0.146E+00    0.170E+00
DAV:   3    -0.564770212406E+02    0.18324E-01   -0.28363E-01   280   0.138E+00    0.733E-01
DAV:   4    -0.564719015612E+02    0.51197E-02   -0.44824E-02   280   0.555E-01    0.223E-01
DAV:   5    -0.564702270606E+02    0.16745E-02   -0.71531E-03   245   0.271E-01    0.144E-01
DAV:   6    -0.564699960562E+02    0.23100E-03   -0.29419E-03   280   0.193E-01    0.981E-02
DAV:   7    -0.564699196128E+02    0.76443E-04   -0.28188E-03   245   0.184E-01    0.110E-01
DAV:   8    -0.564697804884E+02    0.13912E-03   -0.16987E-03   140   0.132E-01    0.354E-02
DAV:   9    -0.564697443272E+02    0.36161E-04   -0.27954E-04   210   0.635E-02
  13 F= -.56469744E+02 E0= -.56402058E+02  d E =-.786726E-02
 summed vel is now -4.336808689942018E-019 -1.301042606982605E-018
  8.673617379884035E-019
quench:  g(F)=  0.144E-02 g(S)=  0.000E+00 dE (1.order)=-0.857E-02
 bond charge predicted
       N       E                     dE             d eps       ncg     rms          rms(c)
DAV:   1    -0.564740051591E+02   -0.42247E-02   -0.29426E+00   210   0.389E+00    0.223E-01
DAV:   2    -0.564810565319E+02   -0.70514E-02   -0.75818E-02   280   0.906E-01    0.486E-01
DAV:   3    -0.564793221396E+02    0.17344E-02   -0.38470E-02   280   0.659E-01    0.278E-01
DAV:   4    -0.564785391390E+02    0.78300E-03   -0.10517E-02   280   0.259E-01    0.216E-01
DAV:   5    -0.564782045510E+02    0.33459E-03   -0.58847E-03   245   0.192E-01    0.164E-01
DAV:   6    -0.564779406924E+02    0.26386E-03   -0.26686E-03   210   0.160E-01    0.990E-02
DAV:   7    -0.564777933323E+02    0.14736E-03   -0.21837E-03   280   0.167E-01    0.812E-02
DAV:   8    -0.564776993969E+02    0.93935E-04   -0.10482E-03   140   0.114E-01    0.373E-02
DAV:   9    -0.564776788100E+02    0.20587E-04   -0.22519E-04   140   0.579E-02
  14 F= -.56477679E+02 E0= -.56410199E+02  d E =-.793448E-02
 summed vel is now -1.084202172485504E-019 -1.734723475976807E-018
  0.000000000000000E+000
quench:  g(F)=  0.126E-02 g(S)=  0.000E+00 dE (1.order)=-0.992E-02
 bond charge predicted
       N       E                     dE             d eps       ncg     rms          rms(c)
DAV:   1    -0.564815155440E+02   -0.38161E-02   -0.45416E+00   210   0.481E+00    0.314E-01
DAV:   2    -0.564997229023E+02   -0.18207E-01   -0.17684E-01   280   0.125E+00    0.117E+00
DAV:   3    -0.564924345741E+02    0.72883E-02   -0.15127E-01   245   0.103E+00    0.599E-01
DAV:   4    -0.564891321852E+02    0.33024E-02   -0.31419E-02   280   0.454E-01    0.255E-01
DAV:   5    -0.564877748567E+02    0.13573E-02   -0.70970E-03   245   0.247E-01    0.152E-01
DAV:   6    -0.564874973372E+02    0.27752E-03   -0.34487E-03   280   0.219E-01    0.122E-01
DAV:   7    -0.564872143350E+02    0.28300E-03   -0.27245E-03   245   0.202E-01    0.652E-02
DAV:   8    -0.564871542789E+02    0.60056E-04   -0.88694E-04   140   0.107E-01
  15 F= -.56487154E+02 E0= -.56419800E+02  d E =-.947547E-02
 summed vel is now -8.673617379884035E-019 -1.734723475976807E-018
  0.000000000000000E+000
quench:  g(F)=  0.121E-02 g(S)=  0.000E+00 dE (1.order)=-0.115E-01
 bond charge predicted
       N       E                     dE             d eps       ncg     rms          rms(c)
DAV:   1    -0.564894749750E+02   -0.22606E-02   -0.63325E+00   210   0.571E+00    0.339E-01
DAV:   2    -0.565055232913E+02   -0.16048E-01   -0.17501E-01   280   0.139E+00    0.766E-01
DAV:   3    -0.565015015417E+02    0.40217E-02   -0.10109E-01   280   0.102E+00    0.482E-01
DAV:   4    -0.564996376041E+02    0.18639E-02   -0.29340E-02   280   0.415E-01    0.330E-01
DAV:   5    -0.564985897629E+02    0.10478E-02   -0.12328E-02   280   0.288E-01    0.224E-01
DAV:   6    -0.564981333874E+02    0.45638E-03   -0.52468E-03   280   0.236E-01    0.149E-01
DAV:   7    -0.564978517273E+02    0.28166E-03   -0.46733E-03   280   0.235E-01    0.119E-01
DAV:   8    -0.564976247080E+02    0.22702E-03   -0.22353E-03   210   0.164E-01    0.530E-02
DAV:   9    -0.564975922444E+02    0.32464E-04   -0.46850E-04   140   0.822E-02
  16 F= -.56497592E+02 E0= -.56430454E+02  d E =-.104380E-01
 summed vel is now -8.673617379884035E-019 -1.734723475976807E-018
  1.734723475976807E-018
quench:  g(F)=  0.117E-02 g(S)=  0.000E+00 dE (1.order)=-0.119E-01
 bond charge predicted
       N       E                     dE             d eps       ncg     rms          rms(c)
DAV:   1    -0.564986843937E+02   -0.10597E-02   -0.70837E+00   210   0.602E+00    0.408E-01
DAV:   2    -0.565292162265E+02   -0.30532E-01   -0.31263E-01   315   0.171E+00    0.152E+00
DAV:   3    -0.565153353523E+02    0.13881E-01   -0.26188E-01   280   0.138E+00    0.765E-01
DAV:   4    -0.565104290208E+02    0.49063E-02   -0.51247E-02   280   0.601E-01    0.319E-01
DAV:   5    -0.565083852195E+02    0.20438E-02   -0.11445E-02   280   0.331E-01    0.197E-01
DAV:   6    -0.565080393820E+02    0.34584E-03   -0.58191E-03   350   0.274E-01    0.167E-01
DAV:   7    -0.565078542373E+02    0.18514E-03   -0.72484E-03   280   0.283E-01    0.164E-01
DAV:   8    -0.565075058585E+02    0.34838E-03   -0.38823E-03   210   0.207E-01    0.518E-02
DAV:   9    -0.565074342783E+02    0.71580E-04   -0.47924E-04   140   0.813E-02
  17 F= -.56507434E+02 E0= -.56440183E+02  d E =-.984203E-02
 summed vel is now  0.000000000000000E+000 -2.059984127722458E-018
  0.000000000000000E+000
quench:  g(F)=  0.142E-02 g(S)=  0.000E+00 dE (1.order)=-0.104E-01
 bond charge predicted
       N       E                     dE             d eps       ncg     rms          rms(c)
DAV:   1    -0.565092473100E+02   -0.17415E-02   -0.44373E+00   210   0.481E+00    0.313E-01
DAV:   2    -0.565225309819E+02   -0.13284E-01   -0.15318E-01   280   0.134E+00    0.779E-01
DAV:   3    -0.565185735214E+02    0.39575E-02   -0.10138E-01   280   0.104E+00    0.576E-01
DAV:   4    -0.565163702805E+02    0.22032E-02   -0.34598E-02   280   0.485E-01    0.305E-01
DAV:   5    -0.565151224268E+02    0.12479E-02   -0.97515E-03   280   0.284E-01    0.149E-01
DAV:   6    -0.565147231160E+02    0.39931E-03   -0.40688E-03   245   0.198E-01    0.123E-01
DAV:   7    -0.565147049859E+02    0.18130E-04   -0.39992E-03   280   0.197E-01    0.136E-01
DAV:   8    -0.565145051345E+02    0.19985E-03   -0.29023E-03   210   0.171E-01    0.644E-02
DAV:   9    -0.565144214187E+02    0.83716E-04   -0.72221E-04   140   0.947E-02
  18 F= -.56514421E+02 E0= -.56447465E+02  d E =-.698714E-02
 summed vel is now  1.301042606982605E-018 -1.734723475976807E-018
 -2.168404344971009E-019
quench:  g(F)=  0.141E-02 g(S)=  0.000E+00 dE (1.order)=-0.637E-02
 bond charge predicted
       N       E                     dE             d eps       ncg     rms          rms(c)
DAV:   1    -0.565176345001E+02   -0.31294E-02   -0.16844E+00   210   0.295E+00    0.237E-01
DAV:   2    -0.565287668335E+02   -0.11132E-01   -0.11381E-01   315   0.959E-01    0.102E+00
DAV:   3    -0.565228535797E+02    0.59133E-02   -0.11036E-01   280   0.865E-01    0.443E-01
DAV:   4    -0.565203723903E+02    0.24812E-02   -0.17349E-02   245   0.376E-01    0.145E-01
DAV:   5    -0.565197019130E+02    0.67048E-03   -0.31299E-03   210   0.187E-01    0.104E-01
DAV:   6    -0.565195727849E+02    0.12913E-03   -0.14614E-03   245   0.135E-01    0.714E-02
DAV:   7    -0.565195524070E+02    0.20378E-04   -0.15160E-03   210   0.133E-01    0.861E-02
DAV:   8    -0.565194783444E+02    0.74063E-04   -0.10355E-03   140   0.106E-01    0.318E-02
DAV:   9    -0.565194509394E+02    0.27405E-04   -0.21308E-04   140   0.552E-02
  19 F= -.56519451E+02 E0= -.56452398E+02  d E =-.502952E-02
 summed vel is now  1.517883041479706E-018 -1.301042606982605E-018
  0.000000000000000E+000
quench:  g(F)=  0.102E-02 g(S)=  0.000E+00 dE (1.order)=-0.589E-02
 bond charge predicted
       N       E                     dE             d eps       ncg     rms          rms(c)
DAV:   1    -0.565225056942E+02   -0.30273E-02   -0.19655E+00   210   0.318E+00    0.167E-01
DAV:   2    -0.565265593546E+02   -0.40537E-02   -0.43480E-02   280   0.689E-01    0.319E-01
DAV:   3    -0.565260003604E+02    0.55899E-03   -0.20257E-02   245   0.457E-01    0.229E-01
DAV:   4    -0.565255605667E+02    0.43979E-03   -0.70798E-03   280   0.202E-01    0.157E-01
DAV:   5    -0.565253251802E+02    0.23539E-03   -0.30165E-03   210   0.148E-01    0.126E-01
DAV:   6    -0.565251833309E+02    0.14185E-03   -0.15152E-03   175   0.134E-01    0.838E-02
DAV:   7    -0.565250835755E+02    0.99755E-04   -0.14765E-03   245   0.138E-01    0.597E-02
DAV:   8    -0.565250118644E+02    0.71711E-04   -0.49168E-04   140   0.884E-02
  20 F= -.56525012E+02 E0= -.56458038E+02  d E =-.556092E-02
 summed vel is now -3.252606517456513E-019  1.734723475976807E-018
  0.000000000000000E+000
quench:  g(F)=  0.945E-03 g(S)=  0.000E+00 dE (1.order)=-0.737E-02
 bond charge predicted
       N       E                     dE             d eps       ncg     rms          rms(c)
DAV:   1    -0.565277777608E+02   -0.26942E-02   -0.33289E+00   210   0.413E+00    0.223E-01
DAV:   2    -0.565352677093E+02   -0.74899E-02   -0.79612E-02   280   0.899E-01    0.514E-01
DAV:   3    -0.565344182092E+02    0.84950E-03   -0.47881E-02   280   0.587E-01    0.383E-01
DAV:   4    -0.565332286395E+02    0.11896E-02   -0.15762E-02   280   0.303E-01    0.219E-01
DAV:   5    -0.565325918658E+02    0.63677E-03   -0.45714E-03   245   0.200E-01    0.138E-01
DAV:   6    -0.565323659413E+02    0.22592E-03   -0.21799E-03   245   0.182E-01    0.100E-01
DAV:   7    -0.565321311246E+02    0.23482E-03   -0.11929E-03   210   0.147E-01    0.285E-02
DAV:   8    -0.565321102987E+02    0.20826E-04   -0.28291E-04   140   0.769E-02
  21 F= -.56532110E+02 E0= -.56465208E+02  d E =-.709843E-02
 summed vel is now  4.336808689942018E-019  8.673617379884035E-019
  8.673617379884035E-019
quench:  g(F)=  0.964E-03 g(S)=  0.000E+00 dE (1.order)=-0.908E-02
 bond charge predicted
       N       E                     dE             d eps       ncg     rms          rms(c)
DAV:   1    -0.565340827192E+02   -0.19516E-02   -0.49293E+00   210   0.505E+00    0.280E-01
DAV:   2    -0.565451820619E+02   -0.11099E-01   -0.12222E-01   315   0.119E+00    0.571E-01
DAV:   3    -0.565433496991E+02    0.18324E-02   -0.67945E-02   245   0.808E-01    0.429E-01
DAV:   4    -0.565419482414E+02    0.14015E-02   -0.23679E-02   280   0.362E-01    0.263E-01
DAV:   5    -0.565411962905E+02    0.75195E-03   -0.74949E-03   245   0.242E-01    0.183E-01
DAV:   6    -0.565408954708E+02    0.30082E-03   -0.35537E-03   280   0.210E-01    0.140E-01
DAV:   7    -0.565406876980E+02    0.20777E-03   -0.37416E-03   280   0.214E-01    0.103E-01
DAV:   8    -0.565404839719E+02    0.20373E-03   -0.14737E-03   210   0.146E-01    0.328E-02
DAV:   9    -0.565404741098E+02    0.98621E-05   -0.28343E-04   140   0.586E-02
  22 F= -.56540474E+02 E0= -.56473792E+02  d E =-.836381E-02
 summed vel is now  4.336808689942018E-019 -2.602085213965211E-018
  1.301042606982605E-018
quench:  g(F)=  0.948E-03 g(S)=  0.000E+00 dE (1.order)=-0.980E-02
 bond charge predicted
       N       E                     dE             d eps       ncg     rms          rms(c)
DAV:   1    -0.565410748393E+02   -0.59087E-03   -0.58789E+00   210   0.551E+00    0.314E-01
DAV:   2    -0.565546767579E+02   -0.13602E-01   -0.14960E-01   280   0.126E+00    0.712E-01
DAV:   3    -0.565532005433E+02    0.14762E-02   -0.99380E-02   280   0.832E-01    0.576E-01
DAV:   4    -0.565506518593E+02    0.25487E-02   -0.36091E-02   280   0.456E-01    0.272E-01
DAV:   5    -0.565494874752E+02    0.11644E-02   -0.81654E-03   245   0.277E-01    0.190E-01
DAV:   6    -0.565492393396E+02    0.24814E-03   -0.46582E-03   280   0.251E-01    0.154E-01
DAV:   7    -0.565489916520E+02    0.24769E-03   -0.52199E-03   280   0.249E-01    0.126E-01
DAV:   8    -0.565487539492E+02    0.23770E-03   -0.23403E-03   210   0.169E-01    0.422E-02
DAV:   9    -0.565487155558E+02    0.38393E-04   -0.37274E-04   140   0.742E-02
  23 F= -.56548716E+02 E0= -.56482026E+02  d E =-.824145E-02
 summed vel is now -1.301042606982605E-018  1.409462824231156E-018
 -1.734723475976807E-018
quench:  g(F)=  0.127E-02 g(S)=  0.000E+00 dE (1.order)=-0.898E-02
 bond charge predicted
       N       E                     dE             d eps       ncg     rms          rms(c)
DAV:   1    -0.565501265386E+02   -0.13726E-02   -0.36953E+00   210   0.440E+00    0.298E-01
DAV:   2    -0.565602361426E+02   -0.10110E-01   -0.12058E-01   315   0.128E+00    0.583E-01
DAV:   3    -0.565564600514E+02    0.37761E-02   -0.57606E-02   280   0.997E-01    0.374E-01
DAV:   4    -0.565555374671E+02    0.92258E-03   -0.15824E-02   280   0.356E-01    0.258E-01
DAV:   5    -0.565549011858E+02    0.63628E-03   -0.86920E-03   245   0.253E-01    0.175E-01
DAV:   6    -0.565545942346E+02    0.30695E-03   -0.51770E-03   245   0.185E-01    0.132E-01
DAV:   7    -0.565545077992E+02    0.86435E-04   -0.36406E-03   280   0.187E-01    0.107E-01
DAV:   8    -0.565543023023E+02    0.20550E-03   -0.16534E-03   210   0.153E-01    0.427E-02
DAV:   9    -0.565542678867E+02    0.34416E-04   -0.38790E-04   140   0.674E-02
  24 F= -.56554268E+02 E0= -.56487827E+02  d E =-.555233E-02
 summed vel is now -7.047314121155779E-019 -1.301042606982605E-018
 -5.421010862427522E-019
quench:  g(F)=  0.143E-02 g(S)=  0.000E+00 dE (1.order)=-0.500E-02
 bond charge predicted
       N       E                     dE             d eps       ncg     rms          rms(c)
DAV:   1    -0.565569940512E+02   -0.26917E-02   -0.10210E+00   210   0.231E+00    0.161E-01
DAV:   2    -0.565599000734E+02   -0.29060E-02   -0.34052E-02   280   0.601E-01    0.381E-01
DAV:   3    -0.565595559065E+02    0.34417E-03   -0.28906E-02   280   0.483E-01    0.332E-01
DAV:   4    -0.565586939929E+02    0.86191E-03   -0.10960E-02   280   0.263E-01    0.106E-01
DAV:   5    -0.565582645774E+02    0.42942E-03   -0.15829E-03   210   0.132E-01    0.702E-02
DAV:   6    -0.565582366049E+02    0.27973E-04   -0.81246E-04   140   0.103E-01
  25 F= -.56558237E+02 E0= -.56491723E+02  d E =-.396872E-02
 summed vel is now  2.168404344971009E-019  2.168404344971009E-019
  0.000000000000000E+000
quench:  g(F)=  0.920E-03 g(S)=  0.000E+00 dE (1.order)=-0.463E-02
 bond charge predicted
       N       E                     dE             d eps       ncg     rms          rms(c)
DAV:   1    -0.565607116964E+02   -0.24471E-02   -0.13469E+00   210   0.265E+00    0.136E-01
DAV:   2    -0.565632858706E+02   -0.25742E-02   -0.27128E-02   280   0.584E-01    0.220E-01
DAV:   3    -0.565630845162E+02    0.20135E-03   -0.10650E-02   280   0.325E-01    0.197E-01
DAV:   4    -0.565628274416E+02    0.25707E-03   -0.49877E-03   210   0.162E-01    0.120E-01
DAV:   5    -0.565626547434E+02    0.17270E-03   -0.20961E-03   175   0.127E-01    0.103E-01
DAV:   6    -0.565625672394E+02    0.87504E-04   -0.12565E-03   175   0.129E-01    0.810E-02
DAV:   7    -0.565625160105E+02    0.51229E-04   -0.12135E-03   210   0.121E-01    0.645E-02
DAV:   8    -0.565624558583E+02    0.60152E-04   -0.58310E-04   140   0.885E-02
  26 F= -.56562456E+02 E0= -.56496154E+02  d E =-.421925E-02
 summed vel is now  0.000000000000000E+000 -8.673617379884035E-019
 -1.301042606982605E-018
quench:  g(F)=  0.926E-03 g(S)=  0.000E+00 dE (1.order)=-0.632E-02
 bond charge predicted
       N       E                     dE             d eps       ncg     rms          rms(c)
DAV:   1    -0.565650421837E+02   -0.25262E-02   -0.24881E+00   210   0.359E+00    0.185E-01
DAV:   2    -0.565697581613E+02   -0.47160E-02   -0.50175E-02   280   0.751E-01    0.297E-01
DAV:   3    -0.565695697147E+02    0.18845E-03   -0.22348E-02   280   0.446E-01    0.292E-01
DAV:   4    -0.565689814359E+02    0.58828E-03   -0.10767E-02   280   0.238E-01    0.164E-01
DAV:   5    -0.565686470934E+02    0.33434E-03   -0.36729E-03   210   0.165E-01    0.131E-01
DAV:   6    -0.565684945240E+02    0.15257E-03   -0.19412E-03   245   0.160E-01    0.951E-02
DAV:   7    -0.565683735203E+02    0.12100E-03   -0.14589E-03   210   0.141E-01    0.739E-02
DAV:   8    -0.565683033008E+02    0.70220E-04   -0.76446E-04   140   0.992E-02
  27 F= -.56568303E+02 E0= -.56502141E+02  d E =-.584744E-02
 summed vel is now  0.000000000000000E+000  1.301042606982605E-018
 -4.336808689942018E-019
quench:  g(F)=  0.847E-03 g(S)=  0.000E+00 dE (1.order)=-0.751E-02
 bond charge predicted
       N       E                     dE             d eps       ncg     rms          rms(c)
DAV:   1    -0.565704067777E+02   -0.20333E-02   -0.38563E+00   210   0.447E+00    0.237E-01
DAV:   2    -0.565786238146E+02   -0.82170E-02   -0.88237E-02   280   0.102E+00    0.460E-01
DAV:   3    -0.565771276270E+02    0.14962E-02   -0.37563E-02   280   0.655E-01    0.283E-01
DAV:   4    -0.565762507102E+02    0.87692E-03   -0.10772E-02   280   0.248E-01    0.185E-01
DAV:   5    -0.565759787180E+02    0.27199E-03   -0.68528E-03   245   0.203E-01    0.184E-01
DAV:   6    -0.565758795848E+02    0.99133E-04   -0.56118E-03   245   0.214E-01    0.169E-01
DAV:   7    -0.565756711190E+02    0.20847E-03   -0.43438E-03   245   0.222E-01    0.116E-01
DAV:   8    -0.565754418901E+02    0.22923E-03   -0.19235E-03   175   0.158E-01    0.435E-02
DAV:   9    -0.565754009462E+02    0.40944E-04   -0.32546E-04   140   0.705E-02
  28 F= -.56575401E+02 E0= -.56509323E+02  d E =-.709765E-02
 summed vel is now  1.734723475976807E-018 -8.673617379884035E-019
 -8.673617379884035E-019
quench:  g(F)=  0.848E-03 g(S)=  0.000E+00 dE (1.order)=-0.872E-02
 bond charge predicted
       N       E                     dE             d eps       ncg     rms          rms(c)
DAV:   1    -0.565765508573E+02   -0.11090E-02   -0.51828E+00   210   0.519E+00    0.270E-01
DAV:   2    -0.565865091334E+02   -0.99583E-02   -0.10718E-01   280   0.112E+00    0.423E-01
DAV:   3    -0.565854117770E+02    0.10974E-02   -0.39568E-02   280   0.700E-01    0.350E-01
DAV:   4    -0.565844932620E+02    0.91851E-03   -0.17914E-02   280   0.324E-01    0.240E-01
DAV:   5    -0.565840284308E+02    0.46483E-03   -0.95813E-03   245   0.243E-01    0.197E-01
DAV:   6    -0.565837586837E+02    0.26975E-03   -0.55872E-03   280   0.235E-01    0.154E-01
DAV:   7    -0.565835967635E+02    0.16192E-03   -0.46755E-03   280   0.235E-01    0.143E-01
DAV:   8    -0.565833590068E+02    0.23776E-03   -0.24890E-03   210   0.165E-01    0.479E-02
DAV:   9    -0.565832819248E+02    0.77082E-04   -0.34366E-04   140   0.691E-02
  29 F= -.56583282E+02 E0= -.56517527E+02  d E =-.788098E-02
 summed vel is now -1.002887009549092E-018 -3.469446951953614E-018
 -6.505213034913027E-019
quench:  g(F)=  0.885E-03 g(S)=  0.000E+00 dE (1.order)=-0.883E-02
 bond charge predicted
       N       E                     dE             d eps       ncg     rms          rms(c)
DAV:   1    -0.565836643195E+02   -0.30531E-03   -0.51207E+00   210   0.517E+00    0.330E-01
DAV:   2    -0.565989177554E+02   -0.15253E-01   -0.17597E-01   280   0.146E+00    0.784E-01
DAV:   3    -0.565927794740E+02    0.61383E-02   -0.97019E-02   280   0.111E+00    0.362E-01
DAV:   4    -0.565911497448E+02    0.16297E-02   -0.19410E-02   280   0.351E-01    0.236E-01
DAV:   5    -0.565905646239E+02    0.58512E-03   -0.10161E-02   245   0.252E-01    0.201E-01
DAV:   6    -0.565904708682E+02    0.93756E-04   -0.89144E-03   245   0.248E-01    0.210E-01
DAV:   7    -0.565902747794E+02    0.19609E-03   -0.69098E-03   280   0.259E-01    0.157E-01
DAV:   8    -0.565899338530E+02    0.34093E-03   -0.39371E-03   210   0.217E-01    0.678E-02
DAV:   9    -0.565898274004E+02    0.10645E-03   -0.64083E-04   140   0.976E-02    0.203E-02
DAV:  10    -0.565898168555E+02    0.10545E-04   -0.96943E-05   140   0.443E-02
  30 F= -.56589817E+02 E0= -.56524073E+02  d E =-.653493E-02
 summed vel is now  0.000000000000000E+000  3.794707603699266E-019
  8.673617379884035E-019
quench:  g(F)=  0.131E-02 g(S)=  0.000E+00 dE (1.order)=-0.690E-02
 bond charge predicted
       N       E                     dE             d eps       ncg     rms          rms(c)
DAV:   1    -0.565919874632E+02   -0.21601E-02   -0.21214E+00   210   0.333E+00    0.231E-01
DAV:   2    -0.565980126148E+02   -0.60252E-02   -0.74144E-02   280   0.953E-01    0.463E-01
DAV:   3    -0.565956072967E+02    0.24053E-02   -0.42871E-02   280   0.767E-01    0.291E-01
DAV:   4    -0.565951557860E+02    0.45151E-03   -0.15839E-02   280   0.296E-01    0.226E-01
DAV:   5    -0.565946756923E+02    0.48009E-03   -0.67765E-03   245   0.201E-01    0.111E-01
DAV:   6    -0.565944689773E+02    0.20671E-03   -0.28163E-03   245   0.171E-01    0.930E-02
DAV:   7    -0.565944031627E+02    0.65815E-04   -0.16338E-03   210   0.136E-01    0.807E-02
DAV:   8    -0.565943399947E+02    0.63168E-04   -0.79930E-04   140   0.103E-01
  31 F= -.56594340E+02 E0= -.56528704E+02  d E =-.452314E-02
 summed vel is now  2.168404344971009E-019 -4.336808689942018E-019
  2.168404344971009E-019
quench:  g(F)=  0.909E-03 g(S)=  0.000E+00 dE (1.order)=-0.413E-02
 bond charge predicted
       N       E                     dE             d eps       ncg     rms          rms(c)
DAV:   1    -0.565965727914E+02   -0.21696E-02   -0.10906E+00   210   0.239E+00    0.140E-01
DAV:   2    -0.565991783665E+02   -0.26056E-02   -0.30065E-02   280   0.583E-01    0.286E-01
DAV:   3    -0.565985222198E+02    0.65615E-03   -0.15761E-02   245   0.443E-01    0.185E-01
DAV:   4    -0.565982270683E+02    0.29515E-03   -0.57252E-03   245   0.180E-01    0.128E-01
DAV:   5    -0.565980366007E+02    0.19047E-03   -0.24428E-03   175   0.124E-01    0.880E-02
DAV:   6    -0.565979683017E+02    0.68299E-04   -0.12880E-03   140   0.113E-01    0.828E-02
DAV:   7    -0.565979280312E+02    0.40271E-04   -0.10930E-03   175   0.125E-01    0.558E-02
DAV:   8    -0.565978774064E+02    0.50625E-04   -0.54707E-04   140   0.102E-01
  32 F= -.56597877E+02 E0= -.56532368E+02  d E =-.353741E-02
 summed vel is now  8.673617379884035E-019  1.301042606982605E-018
 -6.505213034913027E-019
quench:  g(F)=  0.778E-03 g(S)=  0.000E+00 dE (1.order)=-0.477E-02
 bond charge predicted
       N       E                     dE             d eps       ncg     rms          rms(c)
DAV:   1    -0.566001134195E+02   -0.21854E-02   -0.16868E+00   210   0.296E+00    0.157E-01
DAV:   2    -0.566036760931E+02   -0.35627E-02   -0.36042E-02   280   0.652E-01    0.312E-01
DAV:   3    -0.566031144459E+02    0.56165E-03   -0.13058E-02   280   0.412E-01    0.193E-01
DAV:   4    -0.566026514160E+02    0.46303E-03   -0.34612E-03   245   0.171E-01    0.107E-01
DAV:   5    -0.566025148044E+02    0.13661E-03   -0.24419E-03   175   0.131E-01    0.122E-01
DAV:   6    -0.566024600226E+02    0.54782E-04   -0.29244E-03   210   0.146E-01    0.103E-01
DAV:   7    -0.566023897701E+02    0.70252E-04   -0.23847E-03   245   0.147E-01    0.832E-02
DAV:   8    -0.566022916645E+02    0.98106E-04   -0.92581E-04   140   0.100E-01
  33 F= -.56602292E+02 E0= -.56536802E+02  d E =-.441426E-02
 summed vel is now  2.168404344971009E-019 -2.168404344971009E-018
 -4.336808689942018E-019
quench:  g(F)=  0.704E-03 g(S)=  0.000E+00 dE (1.order)=-0.577E-02
 bond charge predicted
       N       E                     dE             d eps       ncg     rms          rms(c)
DAV:   1    -0.566042086801E+02   -0.18189E-02   -0.27404E+00   210   0.377E+00    0.195E-01
DAV:   2    -0.566100325577E+02   -0.58239E-02   -0.60698E-02   280   0.841E-01    0.393E-01
DAV:   3    -0.566089687704E+02    0.10638E-02   -0.22593E-02   280   0.535E-01    0.223E-01
DAV:   4    -0.566082883475E+02    0.68042E-03   -0.44543E-03   245   0.193E-01    0.122E-01
DAV:   5    -0.566080696254E+02    0.21872E-03   -0.26356E-03   210   0.168E-01    0.136E-01
DAV:   6    -0.566081453455E+02   -0.75720E-04   -0.54398E-03   245   0.194E-01    0.186E-01
DAV:   7    -0.566080135238E+02    0.13182E-03   -0.60968E-03   245   0.196E-01    0.115E-01
DAV:   8    -0.566077816125E+02    0.23191E-03   -0.19976E-03   175   0.140E-01    0.380E-02
DAV:   9    -0.566077399580E+02    0.41654E-04   -0.25217E-04   140   0.590E-02
  34 F= -.56607740E+02 E0= -.56542270E+02  d E =-.544829E-02
 summed vel is now -1.734723475976807E-018  1.084202172485504E-018
 -3.469446951953614E-018
quench:  g(F)=  0.683E-03 g(S)=  0.000E+00 dE (1.order)=-0.676E-02
 bond charge predicted
       N       E                     dE             d eps       ncg     rms          rms(c)
DAV:   1    -0.566090049956E+02   -0.12234E-02   -0.38683E+00   210   0.448E+00    0.231E-01
DAV:   2    -0.566168108801E+02   -0.78059E-02   -0.81152E-02   280   0.984E-01    0.419E-01
DAV:   3    -0.566155619038E+02    0.12490E-02   -0.26701E-02   280   0.619E-01    0.282E-01
DAV:   4    -0.566147985594E+02    0.76334E-03   -0.85159E-03   245   0.258E-01    0.177E-01
DAV:   5    -0.566144782019E+02    0.32036E-03   -0.56260E-03   245   0.197E-01    0.164E-01
DAV:   6    -0.566144083187E+02    0.69883E-04   -0.65579E-03   245   0.218E-01    0.167E-01
DAV:   7    -0.566142783846E+02    0.12993E-03   -0.62741E-03   280   0.228E-01    0.140E-01
DAV:   8    -0.566140249684E+02    0.25342E-03   -0.26096E-03   210   0.158E-01    0.388E-02
DAV:   9    -0.566139511438E+02    0.73825E-04   -0.30479E-04   140   0.615E-02
  35 F= -.56613951E+02 E0= -.56548584E+02  d E =-.621119E-02
 summed vel is now  6.505213034913027E-019 -3.035766082959412E-018
  4.336808689942018E-019
quench:  g(F)=  0.662E-03 g(S)=  0.000E+00 dE (1.order)=-0.700E-02
 bond charge predicted
       N       E                     dE             d eps       ncg     rms          rms(c)
DAV:   1    -0.566142067076E+02   -0.18174E-03   -0.42916E+00   210   0.473E+00    0.271E-01
DAV:   2    -0.566248121381E+02   -0.10605E-01   -0.11786E-01   280   0.119E+00    0.586E-01
DAV:   3    -0.566216258663E+02    0.31863E-02   -0.52718E-02   245   0.845E-01    0.289E-01
DAV:   4    -0.566205072573E+02    0.11186E-02   -0.95169E-03   280   0.276E-01    0.176E-01
DAV:   5    -0.566200083034E+02    0.49895E-03   -0.38581E-03   245   0.213E-01    0.131E-01
DAV:   6    -0.566200734606E+02   -0.65157E-04   -0.58981E-03   280   0.246E-01    0.199E-01
DAV:   7    -0.566199503383E+02    0.12312E-03   -0.81915E-03   245   0.227E-01    0.168E-01
DAV:   8    -0.566197098512E+02    0.24049E-03   -0.42906E-03   210   0.168E-01    0.689E-02
DAV:   9    -0.566195709935E+02    0.13886E-03   -0.73195E-04   175   0.880E-02    0.214E-02
DAV:  10    -0.566195586884E+02    0.12305E-04   -0.86611E-05   140   0.366E-02
  36 F= -.56619559E+02 E0= -.56553986E+02  d E =-.560754E-02
 summed vel is now -2.168404344971009E-018 -5.963111948670274E-019
  1.734723475976807E-018
quench:  g(F)=  0.939E-03 g(S)=  0.000E+00 dE (1.order)=-0.616E-02
 bond charge predicted
       N       E                     dE             d eps       ncg     rms          rms(c)
DAV:   1    -0.566207911420E+02   -0.12201E-02   -0.23555E+00   210   0.351E+00    0.240E-01
DAV:   2    -0.566271286479E+02   -0.63375E-02   -0.77602E-02   280   0.994E-01    0.452E-01
DAV:   3    -0.566243328356E+02    0.27958E-02   -0.37349E-02   280   0.787E-01    0.208E-01
DAV:   4    -0.566239670994E+02    0.36574E-03   -0.93131E-03   280   0.266E-01    0.198E-01
DAV:   5    -0.566237141538E+02    0.25295E-03   -0.58748E-03   245   0.179E-01    0.126E-01
DAV:   6    -0.566235632087E+02    0.15095E-03   -0.38782E-03   210   0.186E-01    0.107E-01
DAV:   7    -0.566234437438E+02    0.11946E-03   -0.25042E-03   245   0.171E-01    0.709E-02
DAV:   8    -0.566233635310E+02    0.80213E-04   -0.83241E-04   140   0.110E-01
  37 F= -.56623364E+02 E0= -.56558058E+02  d E =-.380484E-02
 summed vel is now  1.084202172485504E-019 -2.168404344971009E-019
  3.252606517456513E-019
quench:  g(F)=  0.898E-03 g(S)=  0.000E+00 dE (1.order)=-0.331E-02
 bond charge predicted
       N       E                     dE             d eps       ncg     rms          rms(c)
DAV:   1    -0.566250927402E+02   -0.16490E-02   -0.71236E-01   210   0.193E+00    0.130E-01
DAV:   2    -0.566271974640E+02   -0.21047E-02   -0.25242E-02   280   0.571E-01    0.285E-01
DAV:   3    -0.566264067876E+02    0.79068E-03   -0.14395E-02   280   0.436E-01    0.153E-01
DAV:   4    -0.566261225072E+02    0.28428E-03   -0.34285E-03   245   0.152E-01    0.908E-02
DAV:   5    -0.566259931497E+02    0.12936E-03   -0.14809E-03   175   0.101E-01    0.723E-02
DAV:   6    -0.566259734954E+02    0.19654E-04   -0.12253E-03   140   0.976E-02    0.774E-02
DAV:   7    -0.566259395394E+02    0.33956E-04   -0.92554E-04   140   0.101E-01
  38 F= -.56625940E+02 E0= -.56560336E+02  d E =-.257601E-02
 summed vel is now  2.168404344971009E-019 -2.168404344971009E-019
  6.505213034913027E-019
quench:  g(F)=  0.588E-03 g(S)=  0.000E+00 dE (1.order)=-0.309E-02
 bond charge predicted
       N       E                     dE             d eps       ncg     rms          rms(c)
DAV:   1    -0.566275088710E+02   -0.15354E-02   -0.94241E-01   210   0.222E+00    0.103E-01
DAV:   2    -0.566290674344E+02   -0.15586E-02   -0.16047E-02   280   0.425E-01    0.118E-01
DAV:   3    -0.566289932843E+02    0.74150E-04   -0.24168E-03   245   0.191E-01    0.114E-01
DAV:   4    -0.566288979564E+02    0.95328E-04   -0.14793E-03   140   0.106E-01    0.752E-02
DAV:   5    -0.566288376530E+02    0.60303E-04   -0.11399E-03   140   0.107E-01    0.805E-02
DAV:   6    -0.566288640956E+02   -0.26443E-04   -0.20600E-03   210   0.121E-01    0.109E-01
DAV:   7    -0.566287784511E+02    0.85644E-04   -0.13289E-03   140   0.111E-01    0.287E-02
DAV:   8    -0.566287349833E+02    0.43468E-04   -0.22330E-04   140   0.583E-02
  39 F= -.56628735E+02 E0= -.56563149E+02  d E =-.279544E-02
 summed vel is now -1.084202172485504E-018 -2.168404344971009E-019
  0.000000000000000E+000
quench:  g(F)=  0.575E-03 g(S)=  0.000E+00 dE (1.order)=-0.402E-02
 bond charge predicted
       N       E                     dE             d eps       ncg     rms          rms(c)
DAV:   1    -0.566303487757E+02   -0.15703E-02   -0.16275E+00   210   0.291E+00    0.151E-01
DAV:   2    -0.566340009649E+02   -0.36522E-02   -0.37993E-02   280   0.659E-01    0.339E-01
DAV:   3    -0.566333226164E+02    0.67835E-03   -0.17093E-02   280   0.438E-01    0.199E-01
DAV:   4    -0.566328487164E+02    0.47390E-03   -0.50653E-03   245   0.186E-01    0.123E-01
DAV:   5    -0.566326498086E+02    0.19891E-03   -0.27283E-03   175   0.139E-01    0.104E-01
DAV:   6    -0.566325570876E+02    0.92721E-04   -0.17529E-03   175   0.127E-01    0.831E-02
DAV:   7    -0.566325225394E+02    0.34548E-04   -0.18393E-03   210   0.136E-01    0.785E-02
DAV:   8    -0.566324405229E+02    0.82016E-04   -0.85043E-04   140   0.989E-02
  40 F= -.56632441E+02 E0= -.56566738E+02  d E =-.370554E-02
 summed vel is now -4.336808689942018E-019 -4.336808689942018E-019
  0.000000000000000E+000
quench:  g(F)=  0.568E-03 g(S)=  0.000E+00 dE (1.order)=-0.490E-02
 bond charge predicted
       N       E                     dE             d eps       ncg     rms          rms(c)
DAV:   1    -0.566335921008E+02   -0.10696E-02   -0.24430E+00   210   0.356E+00    0.178E-01
DAV:   2    -0.566382494009E+02   -0.46573E-02   -0.47756E-02   280   0.744E-01    0.306E-01
DAV:   3    -0.566377439878E+02    0.50541E-03   -0.13933E-02   280   0.408E-01    0.214E-01
DAV:   4    -0.566372473337E+02    0.49665E-03   -0.46298E-03   245   0.192E-01    0.115E-01
DAV:   5    -0.566370311367E+02    0.21620E-03   -0.24721E-03   175   0.149E-01    0.122E-01
DAV:   6    -0.566371367640E+02   -0.10563E-03   -0.50221E-03   245   0.186E-01    0.169E-01
DAV:   7    -0.566369362353E+02    0.20053E-03   -0.48405E-03   210   0.193E-01    0.883E-02
DAV:   8    -0.566367841224E+02    0.15211E-03   -0.11956E-03   175   0.115E-01    0.280E-02
DAV:   9    -0.566367656321E+02    0.18490E-04   -0.16665E-04   140   0.505E-02
  41 F= -.56636766E+02 E0= -.56570982E+02  d E =-.432511E-02
 summed vel is now -4.336808689942018E-019  1.301042606982605E-018
  0.000000000000000E+000
quench:  g(F)=  0.534E-03 g(S)=  0.000E+00 dE (1.order)=-0.525E-02
 bond charge predicted
       N       E                     dE             d eps       ncg     rms          rms(c)
DAV:   1    -0.566373673104E+02   -0.58319E-03   -0.29918E+00   210   0.394E+00    0.215E-01
DAV:   2    -0.566440429308E+02   -0.66756E-02   -0.72823E-02   280   0.920E-01    0.441E-01
DAV:   3    -0.566426461900E+02    0.13967E-02   -0.33327E-02   245   0.646E-01    0.281E-01
DAV:   4    -0.566418763084E+02    0.76988E-03   -0.10197E-02   280   0.265E-01    0.168E-01
DAV:   5    -0.566415007974E+02    0.37551E-03   -0.53187E-03   210   0.200E-01    0.143E-01
DAV:   6    -0.566413601553E+02    0.14064E-03   -0.37060E-03   245   0.176E-01    0.117E-01
DAV:   7    -0.566413094838E+02    0.50671E-04   -0.32576E-03   245   0.169E-01    0.116E-01
DAV:   8    -0.566411512238E+02    0.15826E-03   -0.18102E-03   175   0.136E-01    0.360E-02
DAV:   9    -0.566410952121E+02    0.56012E-04   -0.23375E-04   140   0.594E-02
  42 F= -.56641095E+02 E0= -.56575042E+02  d E =-.432958E-02
 summed vel is now -4.336808689942018E-019  4.336808689942018E-019
 -1.084202172485504E-019
quench:  g(F)=  0.659E-03 g(S)=  0.000E+00 dE (1.order)=-0.498E-02
 bond charge predicted
       N       E                     dE             d eps       ncg     rms          rms(c)
DAV:   1    -0.566415705464E+02   -0.41932E-03   -0.21830E+00   210   0.337E+00    0.206E-01
DAV:   2    -0.566461962128E+02   -0.46257E-02   -0.53806E-02   280   0.831E-01    0.323E-01
DAV:   3    -0.566448633380E+02    0.13329E-02   -0.18211E-02   280   0.569E-01    0.161E-01
DAV:   4    -0.566445680871E+02    0.29525E-03   -0.49077E-03   245   0.186E-01    0.138E-01
DAV:   5    -0.566444604936E+02    0.10759E-03   -0.41259E-03   210   0.164E-01    0.128E-01
DAV:   6    -0.566444031553E+02    0.57338E-04   -0.37333E-03   210   0.175E-01    0.114E-01
DAV:   7    -0.566442576755E+02    0.14548E-03   -0.23295E-03   245   0.158E-01    0.635E-02
DAV:   8    -0.566441953059E+02    0.62370E-04   -0.67712E-04   140   0.907E-02
  43 F= -.56644195E+02 E0= -.56578294E+02  d E =-.310009E-02
 summed vel is now -8.673617379884035E-019  3.659182332138577E-019
  0.000000000000000E+000
quench:  g(F)=  0.824E-03 g(S)=  0.000E+00 dE (1.order)=-0.305E-02
 bond charge predicted
       N       E                     dE             d eps       ncg     rms          rms(c)
DAV:   1    -0.566456462280E+02   -0.13886E-02   -0.65914E-01   210   0.185E+00    0.131E-01
DAV:   2    -0.566475733282E+02   -0.19271E-02   -0.23449E-02   280   0.557E-01    0.269E-01
DAV:   3    -0.566468141541E+02    0.75917E-03   -0.13312E-02   280   0.432E-01    0.151E-01
DAV:   4    -0.566465758899E+02    0.23826E-03   -0.31267E-03   245   0.154E-01    0.865E-02
DAV:   5    -0.566464568260E+02    0.11906E-03   -0.15198E-03   175   0.110E-01    0.774E-02
DAV:   6    -0.566464144290E+02    0.42397E-04   -0.11334E-03   140   0.937E-02    0.591E-02
DAV:   7    -0.566463926639E+02    0.21765E-04   -0.70260E-04   140   0.844E-02
  44 F= -.56646393E+02 E0= -.56580246E+02  d E =-.219736E-02
 summed vel is now -5.421010862427522E-019  1.084202172485504E-018
 -6.505213034913027E-019
quench:  g(F)=  0.466E-03 g(S)=  0.000E+00 dE (1.order)=-0.236E-02
 bond charge predicted
       N       E                     dE             d eps       ncg     rms          rms(c)
DAV:   1    -0.566476400564E+02   -0.12256E-02   -0.69311E-01   210   0.190E+00    0.876E-02
DAV:   2    -0.566487886745E+02   -0.11486E-02   -0.11817E-02   280   0.357E-01    0.110E-01
DAV:   3    -0.566487697623E+02    0.18912E-04   -0.26736E-03   210   0.174E-01    0.118E-01
DAV:   4    -0.566486710094E+02    0.98753E-04   -0.17887E-03   140   0.112E-01    0.706E-02
DAV:   5    -0.566485978753E+02    0.73134E-04   -0.77824E-04   140   0.851E-02
  45 F= -.56648598E+02 E0= -.56582313E+02  d E =-.220521E-02
 summed vel is now  4.336808689942018E-019 -1.192622389734055E-018
 -2.168404344971009E-019
quench:  g(F)=  0.443E-03 g(S)=  0.000E+00 dE (1.order)=-0.307E-02
 bond charge predicted
       N       E                     dE             d eps       ncg     rms          rms(c)
DAV:   1    -0.566498893148E+02   -0.12183E-02   -0.12334E+00   210   0.254E+00    0.139E-01
DAV:   2    -0.566526140525E+02   -0.27247E-02   -0.29061E-02   280   0.572E-01    0.295E-01
DAV:   3    -0.566519980762E+02    0.61598E-03   -0.11925E-02   280   0.388E-01    0.151E-01
DAV:   4    -0.566516126185E+02    0.38546E-03   -0.26813E-03   245   0.153E-01    0.926E-02
DAV:   5    -0.566514505656E+02    0.16205E-03   -0.88321E-04   175   0.112E-01    0.652E-02
DAV:   6    -0.566515549968E+02   -0.10443E-03   -0.27389E-03   140   0.154E-01    0.149E-01
DAV:   7    -0.566514587961E+02    0.96201E-04   -0.32148E-03   210   0.156E-01    0.610E-02
DAV:   8    -0.566513514344E+02    0.10736E-03   -0.65740E-04   175   0.837E-02    0.231E-02
DAV:   9    -0.566513374587E+02    0.13976E-04   -0.79670E-05   210   0.348E-02
  46 F= -.56651337E+02 E0= -.56584832E+02  d E =-.273958E-02
 summed vel is now  6.505213034913027E-019  0.000000000000000E+000
 -8.673617379884035E-019
quench:  g(F)=  0.444E-03 g(S)=  0.000E+00 dE (1.order)=-0.367E-02
 bond charge predicted
       N       E                     dE             d eps       ncg     rms          rms(c)
DAV:   1    -0.566523919504E+02   -0.10405E-02   -0.17569E+00   210   0.302E+00    0.162E-01
DAV:   2    -0.566560057829E+02   -0.36138E-02   -0.37881E-02   280   0.643E-01    0.319E-01
DAV:   3    -0.566555052787E+02    0.50050E-03   -0.16218E-02   245   0.385E-01    0.204E-01
DAV:   4    -0.566549942482E+02    0.51103E-03   -0.52545E-03   245   0.192E-01    0.105E-01
DAV:   5    -0.566548295395E+02    0.16471E-03   -0.24923E-03   175   0.141E-01    0.111E-01
DAV:   6    -0.566548020014E+02    0.27538E-04   -0.25747E-03   210   0.146E-01    0.110E-01
DAV:   7    -0.566547007595E+02    0.10124E-03   -0.22664E-03   280   0.150E-01    0.638E-02
DAV:   8    -0.566546194337E+02    0.81326E-04   -0.67872E-04   140   0.895E-02
  47 F= -.56654619E+02 E0= -.56588158E+02  d E =-.328198E-02
 summed vel is now  0.000000000000000E+000 -1.517883041479706E-018
 -1.301042606982605E-018
quench:  g(F)=  0.439E-03 g(S)=  0.000E+00 dE (1.order)=-0.378E-02
 bond charge predicted
       N       E                     dE             d eps       ncg     rms          rms(c)
DAV:   1    -0.566553484617E+02   -0.64770E-03   -0.18936E+00   210   0.313E+00    0.184E-01
DAV:   2    -0.566600044621E+02   -0.46560E-02   -0.52209E-02   280   0.785E-01    0.391E-01
DAV:   3    -0.566586474602E+02    0.13570E-02   -0.26011E-02   280   0.588E-01    0.213E-01
DAV:   4    -0.566580753111E+02    0.57215E-03   -0.54914E-03   280   0.210E-01    0.119E-01
DAV:   5    -0.566578532104E+02    0.22210E-03   -0.25349E-03   175   0.153E-01    0.108E-01
DAV:   6    -0.566578092549E+02    0.43956E-04   -0.29127E-03   175   0.155E-01    0.109E-01
DAV:   7    -0.566577927542E+02    0.16501E-04   -0.30241E-03   245   0.150E-01    0.110E-01
DAV:   8    -0.566576729842E+02    0.11977E-03   -0.16243E-03   175   0.120E-01    0.334E-02
DAV:   9    -0.566576186237E+02    0.54360E-04   -0.18597E-04   140   0.521E-02
  48 F= -.56657619E+02 E0= -.56590855E+02  d E =-.299919E-02
 summed vel is now  1.084202172485504E-019  0.000000000000000E+000
  4.336808689942018E-019
quench:  g(F)=  0.586E-03 g(S)=  0.000E+00 dE (1.order)=-0.351E-02
 bond charge predicted
       N       E                     dE             d eps       ncg     rms          rms(c)
DAV:   1    -0.566585975819E+02   -0.92460E-03   -0.12241E+00   210   0.252E+00    0.156E-01
DAV:   2    -0.566613601102E+02   -0.27625E-02   -0.32450E-02   280   0.632E-01    0.262E-01
DAV:   3    -0.566604605248E+02    0.89959E-03   -0.12833E-02   280   0.456E-01    0.118E-01
DAV:   4    -0.566602078246E+02    0.25270E-03   -0.24875E-03   245   0.156E-01    0.775E-02
DAV:   5    -0.566601186801E+02    0.89144E-04   -0.10363E-03   140   0.111E-01    0.698E-02
DAV:   6    -0.566601863428E+02   -0.67663E-04   -0.21445E-03   140   0.132E-01    0.120E-01
DAV:   7    -0.566601054840E+02    0.80859E-04   -0.22545E-03   210   0.136E-01    0.528E-02
DAV:   8    -0.566600407871E+02    0.64697E-04   -0.48055E-04   140   0.718E-02
  49 F= -.56660041E+02 E0= -.56593278E+02  d E =-.242216E-02
 summed vel is now -4.336808689942018E-019  4.743384504624082E-019
 -6.505213034913027E-019
quench:  g(F)=  0.537E-03 g(S)=  0.000E+00 dE (1.order)=-0.265E-02
 bond charge predicted
       N       E                     dE             d eps       ncg     rms          rms(c)
DAV:   1    -0.566612690927E+02   -0.11636E-02   -0.75784E-01   210   0.198E+00    0.122E-01
DAV:   2    -0.566631215891E+02   -0.18525E-02   -0.21322E-02   280   0.491E-01    0.246E-01
DAV:   3    -0.566626167992E+02    0.50479E-03   -0.11112E-02   245   0.384E-01    0.147E-01
DAV:   4    -0.566623700570E+02    0.24674E-03   -0.30374E-03   245   0.151E-01    0.855E-02
DAV:   5    -0.566622494540E+02    0.12060E-03   -0.13627E-03   175   0.108E-01    0.712E-02
DAV:   6    -0.566622170344E+02    0.32420E-04   -0.11913E-03   140   0.996E-02    0.665E-02
DAV:   7    -0.566621890286E+02    0.28006E-04   -0.81576E-04   140   0.918E-02
  50 F= -.56662189E+02 E0= -.56595233E+02  d E =-.214824E-02
 summed vel is now  0.000000000000000E+000 -8.673617379884035E-019
  2.168404344971009E-019
quench:  g(F)=  0.441E-03 g(S)=  0.000E+00 dE (1.order)=-0.266E-02
 bond charge predicted
       N       E                     dE             d eps       ncg     rms          rms(c)
DAV:   1    -0.566633240024E+02   -0.11070E-02   -0.92521E-01   210   0.219E+00    0.106E-01
DAV:   2    -0.566648457224E+02   -0.15217E-02   -0.15890E-02   280   0.404E-01    0.130E-01
DAV:   3    -0.566647668497E+02    0.78873E-04   -0.27530E-03   245   0.206E-01    0.112E-01
DAV:   4    -0.566646465725E+02    0.12028E-03   -0.14820E-03   140   0.112E-01    0.755E-02
DAV:   5    -0.566645701588E+02    0.76414E-04   -0.84670E-04   140   0.108E-01
  51 F= -.56664570E+02 E0= -.56597605E+02  d E =-.238113E-02
 summed vel is now  2.168404344971009E-019 -8.673617379884035E-019
  0.000000000000000E+000
quench:  g(F)=  0.475E-03 g(S)=  0.000E+00 dE (1.order)=-0.324E-02
 bond charge predicted
       N       E                     dE             d eps       ncg     rms          rms(c)
DAV:   1    -0.566655724060E+02   -0.92583E-03   -0.12852E+00   210   0.259E+00    0.154E-01
DAV:   2    -0.566686218366E+02   -0.30494E-02   -0.33619E-02   280   0.651E-01    0.321E-01
DAV:   3    -0.566678607213E+02    0.76112E-03   -0.16762E-02   280   0.441E-01    0.183E-01
DAV:   4    -0.566674099758E+02    0.45075E-03   -0.43761E-03   245   0.185E-01    0.971E-02
DAV:   5    -0.566672252916E+02    0.18468E-03   -0.15848E-03   175   0.121E-01    0.822E-02
DAV:   6    -0.566672229944E+02    0.22972E-05   -0.20782E-03   140   0.135E-01    0.104E-01
DAV:   7    -0.566671827166E+02    0.40278E-04   -0.20453E-03   210   0.133E-01    0.669E-02
DAV:   8    -0.566671006805E+02    0.82036E-04   -0.73024E-04   140   0.965E-02
  52 F= -.56667101E+02 E0= -.56599939E+02  d E =-.253052E-02
 summed vel is now -6.505213034913027E-019 -4.336808689942018E-019
  1.301042606982605E-018
quench:  g(F)=  0.527E-03 g(S)=  0.000E+00 dE (1.order)=-0.358E-02
 bond charge predicted
       N       E                     dE             d eps       ncg     rms          rms(c)
DAV:   1    -0.566681781976E+02   -0.99548E-03   -0.14088E+00   210   0.270E+00    0.152E-01
DAV:   2    -0.566709552323E+02   -0.27770E-02   -0.31752E-02   280   0.617E-01    0.226E-01
DAV:   3    -0.566702413904E+02    0.71384E-03   -0.93562E-03   280   0.428E-01    0.111E-01
DAV:   4    -0.566701117395E+02    0.12965E-03   -0.27060E-03   245   0.155E-01    0.113E-01
DAV:   5    -0.566700140477E+02    0.97692E-04   -0.19165E-03   140   0.116E-01    0.755E-02
DAV:   6    -0.566699716590E+02    0.42389E-04   -0.14595E-03   245   0.118E-01    0.742E-02
DAV:   7    -0.566699135183E+02    0.58141E-04   -0.10767E-03   140   0.112E-01    0.459E-02
DAV:   8    -0.566698830843E+02    0.30434E-04   -0.35269E-04   140   0.642E-02
  53 F= -.56669883E+02 E0= -.56602683E+02  d E =-.278240E-02
 summed vel is now -4.336808689942018E-019  1.084202172485504E-019
 -2.168404344971009E-019
quench:  g(F)=  0.497E-03 g(S)=  0.000E+00 dE (1.order)=-0.332E-02
 bond charge predicted
       N       E                     dE             d eps       ncg     rms          rms(c)
DAV:   1    -0.566710213561E+02   -0.11078E-02   -0.12859E+00   210   0.257E+00    0.153E-01
DAV:   2    -0.566739636480E+02   -0.29423E-02   -0.33843E-02   280   0.620E-01    0.300E-01
DAV:   3    -0.566732354445E+02    0.72820E-03   -0.16179E-02   280   0.463E-01    0.174E-01
DAV:   4    -0.566728524914E+02    0.38295E-03   -0.44069E-03   245   0.185E-01    0.106E-01
DAV:   5    -0.566726520067E+02    0.20048E-03   -0.14158E-03   175   0.122E-01    0.649E-02
DAV:   6    -0.566726788174E+02   -0.26811E-04   -0.18768E-03   140   0.135E-01    0.115E-01
DAV:   7    -0.566726274292E+02    0.51388E-04   -0.23839E-03   175   0.144E-01    0.666E-02
DAV:   8    -0.566725393351E+02    0.88094E-04   -0.64009E-04   140   0.959E-02
  54 F= -.56672539E+02 E0= -.56605135E+02  d E =-.265625E-02
 summed vel is now -2.168404344971009E-019 -1.084202172485504E-019
  0.000000000000000E+000
quench:  g(F)=  0.526E-03 g(S)=  0.000E+00 dE (1.order)=-0.330E-02
 bond charge predicted
       N       E                     dE             d eps       ncg     rms          rms(c)
DAV:   1    -0.566737353263E+02   -0.11079E-02   -0.11973E+00   210   0.249E+00    0.141E-01
DAV:   2    -0.566761523023E+02   -0.24170E-02   -0.27552E-02   280   0.578E-01    0.225E-01
DAV:   3    -0.566755930416E+02    0.55926E-03   -0.10172E-02   280   0.396E-01    0.144E-01
DAV:   4    -0.566754399940E+02    0.15305E-03   -0.41112E-03   245   0.173E-01    0.114E-01
DAV:   5    -0.566752886171E+02    0.15138E-03   -0.15609E-03   245   0.108E-01    0.576E-02
DAV:   6    -0.566752465661E+02    0.42051E-04   -0.10631E-03   210   0.112E-01    0.669E-02
DAV:   7    -0.566751968843E+02    0.49682E-04   -0.90265E-04   140   0.105E-01
  55 F= -.56675197E+02 E0= -.56607898E+02  d E =-.265755E-02
 summed vel is now  0.000000000000000E+000 -1.517883041479706E-018
  0.000000000000000E+000
quench:  g(F)=  0.540E-03 g(S)=  0.000E+00 dE (1.order)=-0.337E-02
 bond charge predicted
       N       E                     dE             d eps       ncg     rms          rms(c)
DAV:   1    -0.566763860924E+02   -0.11395E-02   -0.12238E+00   210   0.251E+00    0.149E-01
DAV:   2    -0.566794705285E+02   -0.30844E-02   -0.34684E-02   280   0.630E-01    0.333E-01
DAV:   3    -0.566785668848E+02    0.90364E-03   -0.18865E-02   280   0.458E-01    0.171E-01
DAV:   4    -0.566781295674E+02    0.43732E-03   -0.38665E-03   245   0.177E-01    0.937E-02
DAV:   5    -0.566779702767E+02    0.15929E-03   -0.13100E-03   140   0.114E-01    0.739E-02
DAV:   6    -0.566779653591E+02    0.49176E-05   -0.16466E-03   140   0.129E-01    0.918E-02
DAV:   7    -0.566779297685E+02    0.35591E-04   -0.18485E-03   245   0.136E-01    0.660E-02
DAV:   8    -0.566778665618E+02    0.63207E-04   -0.61563E-04   140   0.827E-02
  56 F= -.56677867E+02 E0= -.56610430E+02  d E =-.266968E-02
 summed vel is now -2.168404344971009E-019  3.252606517456513E-019
  4.336808689942018E-019
quench:  g(F)=  0.506E-03 g(S)=  0.000E+00 dE (1.order)=-0.327E-02
 bond charge predicted
       N       E                     dE             d eps       ncg     rms          rms(c)
DAV:   1    -0.566790987282E+02   -0.11690E-02   -0.12237E+00   210   0.251E+00    0.139E-01
DAV:   2    -0.566817670639E+02   -0.26683E-02   -0.30267E-02   280   0.592E-01    0.258E-01
DAV:   3    -0.566811301339E+02    0.63693E-03   -0.14014E-02   280   0.411E-01    0.164E-01
DAV:   4    -0.566808614825E+02    0.26865E-03   -0.43715E-03   245   0.179E-01    0.103E-01
DAV:   5    -0.566807152554E+02    0.14623E-03   -0.13569E-03   175   0.102E-01    0.633E-02
DAV:   6    -0.566806986296E+02    0.16626E-04   -0.13387E-03   140   0.126E-01    0.845E-02
DAV:   7    -0.566806349850E+02    0.63645E-04   -0.13086E-03   175   0.125E-01    0.490E-02
DAV:   8    -0.566806045957E+02    0.30389E-04   -0.43495E-04   140   0.771E-02
  57 F= -.56680605E+02 E0= -.56613094E+02  d E =-.273803E-02
 summed vel is now -2.168404344971009E-019  1.301042606982605E-018
 -1.084202172485504E-018
quench:  g(F)=  0.556E-03 g(S)=  0.000E+00 dE (1.order)=-0.358E-02
 bond charge predicted
       N       E                     dE             d eps       ncg     rms          rms(c)
DAV:   1    -0.566820057924E+02   -0.13708E-02   -0.13370E+00   210   0.261E+00    0.146E-01
DAV:   2    -0.566847844270E+02   -0.27786E-02   -0.30999E-02   280   0.579E-01    0.268E-01
DAV:   3    -0.566842350350E+02    0.54939E-03   -0.14734E-02   280   0.421E-01    0.175E-01
DAV:   4    -0.566838913987E+02    0.34364E-03   -0.45817E-03   245   0.193E-01    0.105E-01
DAV:   5    -0.566837394504E+02    0.15195E-03   -0.15604E-03   175   0.120E-01    0.735E-02
DAV:   6    -0.566837122262E+02    0.27224E-04   -0.16388E-03   140   0.131E-01    0.863E-02
DAV:   7    -0.566836665468E+02    0.45679E-04   -0.15136E-03   210   0.129E-01    0.621E-02
DAV:   8    -0.566836171350E+02    0.49412E-04   -0.53629E-04   140   0.772E-02
  58 F= -.56683617E+02 E0= -.56616050E+02  d E =-.301254E-02
 summed vel is now  0.000000000000000E+000  8.673617379884035E-019
 -4.336808689942018E-019
quench:  g(F)=  0.559E-03 g(S)=  0.000E+00 dE (1.order)=-0.390E-02
 bond charge predicted
       N       E                     dE             d eps       ncg     rms          rms(c)
DAV:   1    -0.566850131978E+02   -0.13467E-02   -0.15778E+00   210   0.284E+00    0.151E-01
DAV:   2    -0.566880388224E+02   -0.30256E-02   -0.32818E-02   280   0.620E-01    0.248E-01
DAV:   3    -0.566875658388E+02    0.47298E-03   -0.10954E-02   280   0.375E-01    0.161E-01
DAV:   4    -0.566872852765E+02    0.28056E-03   -0.43084E-03   245   0.181E-01    0.111E-01
DAV:   5    -0.566871267648E+02    0.15851E-03   -0.17928E-03   175   0.122E-01    0.747E-02
DAV:   6    -0.566871031814E+02    0.23583E-04   -0.17670E-03   245   0.140E-01    0.840E-02
DAV:   7    -0.566870044188E+02    0.98763E-04   -0.12554E-03   140   0.131E-01    0.371E-02
DAV:   8    -0.566869777940E+02    0.26625E-04   -0.27973E-04   210   0.621E-02
  59 F= -.56686978E+02 E0= -.56619503E+02  d E =-.336066E-02
 summed vel is now  2.168404344971009E-019 -5.963111948670274E-019
 -4.336808689942018E-019
quench:  g(F)=  0.588E-03 g(S)=  0.000E+00 dE (1.order)=-0.435E-02
 bond charge predicted
       N       E                     dE             d eps       ncg     rms          rms(c)
DAV:   1    -0.566884272979E+02   -0.14229E-02   -0.18661E+00   210   0.309E+00    0.173E-01
DAV:   2    -0.566922883108E+02   -0.38610E-02   -0.42866E-02   280   0.714E-01    0.313E-01
DAV:   3    -0.566915248062E+02    0.76350E-03   -0.19744E-02   280   0.489E-01    0.207E-01
DAV:   4    -0.566910462736E+02    0.47853E-03   -0.58620E-03   245   0.224E-01    0.115E-01
DAV:   5    -0.566908378548E+02    0.20842E-03   -0.17881E-03   175   0.136E-01    0.850E-02
DAV:   6    -0.566908405089E+02   -0.26541E-05   -0.24424E-03   245   0.155E-01    0.103E-01
DAV:   7    -0.566907461580E+02    0.94351E-04   -0.18886E-03   210   0.136E-01    0.656E-02
DAV:   8    -0.566906843531E+02    0.61805E-04   -0.61899E-04   140   0.828E-02
  60 F= -.56690684E+02 E0= -.56623147E+02  d E =-.370656E-02
 summed vel is now -3.252606517456513E-019  4.336808689942018E-019
  0.000000000000000E+000
quench:  g(F)=  0.643E-03 g(S)=  0.000E+00 dE (1.order)=-0.457E-02
 bond charge predicted
       N       E                     dE             d eps       ncg     rms          rms(c)
DAV:   1    -0.566921160867E+02   -0.13699E-02   -0.18786E+00   210   0.310E+00    0.173E-01
DAV:   2    -0.566961072622E+02   -0.39912E-02   -0.45295E-02   280   0.737E-01    0.307E-01
DAV:   3    -0.566951505058E+02    0.95676E-03   -0.19159E-02   280   0.497E-01    0.185E-01
DAV:   4    -0.566947676754E+02    0.38283E-03   -0.57026E-03   245   0.218E-01    0.123E-01
DAV:   5    -0.566945795266E+02    0.18815E-03   -0.18941E-03   175   0.126E-01    0.799E-02
DAV:   6    -0.566945641151E+02    0.15412E-04   -0.21005E-03   245   0.154E-01    0.955E-02
DAV:   7    -0.566944497877E+02    0.11433E-03   -0.16234E-03   140   0.137E-01    0.503E-02
DAV:   8    -0.566944166606E+02    0.33127E-04   -0.50389E-04   140   0.797E-02
  61 F= -.56694417E+02 E0= -.56626947E+02  d E =-.373231E-02
 summed vel is now  0.000000000000000E+000 -2.778268066994105E-019
 -4.336808689942018E-019
quench:  g(F)=  0.746E-03 g(S)=  0.000E+00 dE (1.order)=-0.466E-02
 bond charge predicted
       N       E                     dE             d eps       ncg     rms          rms(c)
DAV:   1    -0.566962498242E+02   -0.18000E-02   -0.16935E+00   210   0.294E+00    0.178E-01
DAV:   2    -0.567000434929E+02   -0.37937E-02   -0.43736E-02   280   0.697E-01    0.336E-01
DAV:   3    -0.566990172706E+02    0.10262E-02   -0.22806E-02   245   0.538E-01    0.204E-01
DAV:   4    -0.566985543665E+02    0.46290E-03   -0.64115E-03   280   0.240E-01    0.124E-01
DAV:   5    -0.566983413750E+02    0.21299E-03   -0.18592E-03   175   0.138E-01    0.783E-02
DAV:   6    -0.566983175285E+02    0.23846E-04   -0.19851E-03   245   0.147E-01    0.876E-02
DAV:   7    -0.566982311128E+02    0.86416E-04   -0.13868E-03   140   0.128E-01    0.544E-02
DAV:   8    -0.566981891562E+02    0.41957E-04   -0.51213E-04   140   0.789E-02
  62 F= -.56698189E+02 E0= -.56630701E+02  d E =-.377250E-02
 summed vel is now  0.000000000000000E+000  1.951563910473908E-018
  0.000000000000000E+000
quench:  g(F)=  0.747E-03 g(S)=  0.000E+00 dE (1.order)=-0.462E-02
 bond charge predicted
       N       E                     dE             d eps       ncg     rms          rms(c)
DAV:   1    -0.567001469456E+02   -0.19158E-02   -0.16562E+00   210   0.291E+00    0.158E-01
DAV:   2    -0.567033110076E+02   -0.31641E-02   -0.35360E-02   280   0.658E-01    0.243E-01
DAV:   3    -0.567026913769E+02    0.61963E-03   -0.11336E-02   280   0.408E-01    0.142E-01
DAV:   4    -0.567024363660E+02    0.25501E-03   -0.39046E-03   245   0.188E-01    0.111E-01
DAV:   5    -0.567023127019E+02    0.12366E-03   -0.17090E-03   175   0.126E-01    0.804E-02
DAV:   6    -0.567023051037E+02    0.75982E-05   -0.19221E-03   245   0.143E-01    0.879E-02
DAV:   7    -0.567021929271E+02    0.11218E-03   -0.12758E-03   140   0.130E-01    0.340E-02
DAV:   8    -0.567021668896E+02    0.26037E-04   -0.25487E-04   210   0.662E-02
  63 F= -.56702167E+02 E0= -.56634846E+02  d E =-.397773E-02
 summed vel is now  4.336808689942018E-019 -9.410536043995277E-019
  8.673617379884035E-019
quench:  g(F)=  0.783E-03 g(S)=  0.000E+00 dE (1.order)=-0.518E-02
 bond charge predicted
       N       E                     dE             d eps       ncg     rms          rms(c)
DAV:   1    -0.567044742954E+02   -0.22814E-02   -0.19966E+00   210   0.319E+00    0.180E-01
DAV:   2    -0.567083386964E+02   -0.38644E-02   -0.43468E-02   280   0.708E-01    0.294E-01
DAV:   3    -0.567076900715E+02    0.64862E-03   -0.18840E-02   280   0.494E-01    0.211E-01
DAV:   4    -0.567072193430E+02    0.47073E-03   -0.66643E-03   245   0.237E-01    0.120E-01
DAV:   5    -0.567069891466E+02    0.23020E-03   -0.17077E-03   210   0.142E-01    0.793E-02
DAV:   6    -0.567070098379E+02   -0.20691E-04   -0.23791E-03   280   0.163E-01    0.108E-01
DAV:   7    -0.567068968693E+02    0.11297E-03   -0.18830E-03   210   0.141E-01    0.539E-02
DAV:   8    -0.567068358178E+02    0.61052E-04   -0.46607E-04   140   0.737E-02
  64 F= -.56706836E+02 E0= -.56639565E+02  d E =-.466893E-02
 summed vel is now  2.168404344971009E-019  1.951563910473908E-018
 -8.673617379884035E-019
quench:  g(F)=  0.793E-03 g(S)=  0.000E+00 dE (1.order)=-0.581E-02
 bond charge predicted
       N       E                     dE             d eps       ncg     rms          rms(c)
DAV:   1    -0.567091389369E+02   -0.22421E-02   -0.24661E+00   210   0.354E+00    0.187E-01
DAV:   2    -0.567135631505E+02   -0.44242E-02   -0.48953E-02   280   0.785E-01    0.257E-01
DAV:   3    -0.567128387509E+02    0.72440E-03   -0.12063E-02   280   0.451E-01    0.152E-01
DAV:   4    -0.567125228769E+02    0.31587E-03   -0.41917E-03   245   0.202E-01    0.116E-01
DAV:   5    -0.567123985526E+02    0.12432E-03   -0.24474E-03   210   0.161E-01    0.107E-01
DAV:   6    -0.567124138650E+02   -0.15312E-04   -0.33134E-03   245   0.178E-01    0.118E-01
DAV:   7    -0.567122488954E+02    0.16497E-03   -0.22417E-03   210   0.160E-01    0.439E-02
DAV:   8    -0.567121878766E+02    0.61019E-04   -0.31835E-04   210   0.744E-02
  65 F= -.56712188E+02 E0= -.56645147E+02  d E =-.535206E-02
 summed vel is now -2.168404344971009E-019 -1.517883041479706E-018
  0.000000000000000E+000
quench:  g(F)=  0.960E-03 g(S)=  0.000E+00 dE (1.order)=-0.691E-02
 bond charge predicted
       N       E                     dE             d eps       ncg     rms          rms(c)
DAV:   1    -0.567148688705E+02   -0.26200E-02   -0.28906E+00   210   0.383E+00    0.228E-01
DAV:   2    -0.567207176784E+02   -0.58488E-02   -0.67209E-02   280   0.901E-01    0.378E-01
DAV:   3    -0.567195567709E+02    0.11609E-02   -0.31711E-02   280   0.642E-01    0.265E-01
DAV:   4    -0.567188227523E+02    0.73402E-03   -0.11263E-02   280   0.303E-01    0.148E-01
DAV:   5    -0.567184606103E+02    0.36214E-03   -0.27232E-03   245   0.175E-01    0.868E-02
DAV:   6    -0.567184629047E+02   -0.22944E-05   -0.27154E-03   245   0.184E-01    0.117E-01
DAV:   7    -0.567183158102E+02    0.14709E-03   -0.21930E-03   210   0.162E-01    0.561E-02
DAV:   8    -0.567182433038E+02    0.72506E-04   -0.53170E-04   140   0.869E-02
  66 F= -.56718243E+02 E0= -.56651298E+02  d E =-.605543E-02
 summed vel is now -1.084202172485504E-019 -1.301042606982605E-018
 -2.168404344971009E-019
quench:  g(F)=  0.110E-02 g(S)=  0.000E+00 dE (1.order)=-0.754E-02
 bond charge predicted
       N       E                     dE             d eps       ncg     rms          rms(c)
DAV:   1    -0.567210464759E+02   -0.27307E-02   -0.29974E+00   210   0.391E+00    0.222E-01
DAV:   2    -0.567269381669E+02   -0.58917E-02   -0.67334E-02   280   0.934E-01    0.344E-01
DAV:   3    -0.567256825176E+02    0.12556E-02   -0.24234E-02   280   0.616E-01    0.216E-01
DAV:   4    -0.567251392048E+02    0.54331E-03   -0.74476E-03   280   0.244E-01    0.138E-01
DAV:   5    -0.567248787422E+02    0.26046E-03   -0.29054E-03   245   0.159E-01    0.103E-01
DAV:   6    -0.567248988795E+02   -0.20137E-04   -0.33884E-03   245   0.188E-01    0.125E-01
DAV:   7    -0.567247239864E+02    0.17489E-03   -0.27779E-03   210   0.177E-01    0.585E-02
DAV:   8    -0.567246450215E+02    0.78965E-04   -0.57035E-04   210   0.874E-02
  67 F= -.56724645E+02 E0= -.56658000E+02  d E =-.640172E-02
 summed vel is now  2.168404344971009E-019 -1.778769189234031E-018
  2.168404344971009E-018
quench:  g(F)=  0.126E-02 g(S)=  0.000E+00 dE (1.order)=-0.793E-02
 bond charge predicted
       N       E                     dE             d eps       ncg     rms          rms(c)
DAV:   1    -0.567280267411E+02   -0.33028E-02   -0.28987E+00   210   0.384E+00    0.243E-01
DAV:   2    -0.567343407243E+02   -0.63140E-02   -0.74442E-02   280   0.961E-01    0.422E-01
DAV:   3    -0.567327293898E+02    0.16113E-02   -0.38648E-02   280   0.707E-01    0.275E-01
DAV:   4    -0.567319205933E+02    0.80880E-03   -0.12603E-02   280   0.325E-01    0.154E-01
DAV:   5    -0.567315186923E+02    0.40190E-03   -0.30114E-03   245   0.184E-01    0.821E-02
DAV:   6    -0.567314809154E+02    0.37777E-04   -0.20887E-03   245   0.182E-01    0.954E-02
DAV:   7    -0.567313569750E+02    0.12394E-03   -0.15146E-03   210   0.146E-01    0.491E-02
DAV:   8    -0.567313200000E+02    0.36975E-04   -0.46747E-04   140   0.726E-02
  68 F= -.56731320E+02 E0= -.56664734E+02  d E =-.667498E-02
 summed vel is now -4.336808689942018E-019  8.673617379884035E-019
  4.336808689942018E-019
quench:  g(F)=  0.135E-02 g(S)=  0.000E+00 dE (1.order)=-0.827E-02
 bond charge predicted
       N       E                     dE             d eps       ncg     rms          rms(c)
DAV:   1    -0.567350133899E+02   -0.36564E-02   -0.29476E+00   210   0.388E+00    0.225E-01
DAV:   2    -0.567410604845E+02   -0.60471E-02   -0.69311E-02   280   0.952E-01    0.379E-01
DAV:   3    -0.567397261908E+02    0.13343E-02   -0.29430E-02   280   0.649E-01    0.245E-01
DAV:   4    -0.567390163979E+02    0.70979E-03   -0.81723E-03   280   0.250E-01    0.131E-01
DAV:   5    -0.567387186785E+02    0.29772E-03   -0.27683E-03   245   0.164E-01    0.103E-01
DAV:   6    -0.567387476153E+02   -0.28937E-04   -0.33936E-03   245   0.193E-01    0.123E-01
DAV:   7    -0.567385699671E+02    0.17765E-03   -0.27327E-03   210   0.176E-01    0.589E-02
DAV:   8    -0.567384915694E+02    0.78398E-04   -0.56553E-04   210   0.887E-02
  69 F= -.56738492E+02 E0= -.56672314E+02  d E =-.717157E-02
 summed vel is now  6.505213034913027E-019 -1.517883041479706E-018
  1.301042606982605E-018
quench:  g(F)=  0.144E-02 g(S)=  0.000E+00 dE (1.order)=-0.913E-02
 bond charge predicted
       N       E                     dE             d eps       ncg     rms          rms(c)
DAV:   1    -0.567427249250E+02   -0.41550E-02   -0.33679E+00   210   0.414E+00    0.252E-01
DAV:   2    -0.567494729747E+02   -0.67480E-02   -0.78937E-02   280   0.100E+00    0.396E-01
DAV:   3    -0.567480671982E+02    0.14058E-02   -0.34776E-02   280   0.701E-01    0.273E-01
DAV:   4    -0.567473055342E+02    0.76166E-03   -0.12624E-02   280   0.323E-01    0.165E-01
DAV:   5    -0.567468870538E+02    0.41848E-03   -0.37361E-03   245   0.201E-01    0.931E-02
DAV:   6    -0.567468518813E+02    0.35173E-04   -0.27800E-03   280   0.213E-01    0.107E-01
DAV:   7    -0.567467025726E+02    0.14931E-03   -0.21400E-03   210   0.175E-01    0.650E-02
DAV:   8    -0.567466450009E+02    0.57572E-04   -0.60969E-04   140   0.859E-02
