 running on    4 total cores
 distrk:  each k-point on    4 cores,    1 groups
 distr:  one band on    1 cores,    4 groups
 using from now: INCAR     
 vasp.5.4.1 24Jun15 (build Oct 26 2018 17:15:27) complex                        
  
 POSCAR found type information on POSCAR  O  H 
 POSCAR found :  2 types and       3 ions
 scaLAPACK will be used

 ----------------------------------------------------------------------------- 
|                                                                             |
|  ADVICE TO THIS USER RUNNING 'VASP/VAMP'   (HEAR YOUR MASTER'S VOICE ...):  |
|                                                                             |
|      You have a (more or less) 'small supercell' and for smaller cells      |
|      it is recommended  to use the reciprocal-space projection scheme!      |
|      The real space optimization is not  efficient for small cells and it   |
|      is also less accurate ...                                              |
|      Therefore set LREAL=.FALSE. in the  INCAR file                         |
|                                                                             |
 ----------------------------------------------------------------------------- 

 LDA part: xc-table for Ceperly-Alder, standard interpolation
 POSCAR, INCAR and KPOINTS ok, starting setup
 WARNING: small aliasing (wrap around) errors must be expected
 FFT: planning ...
 WAVECAR not read
 entering main loop
       N       E                     dE             d eps       ncg     rms          rms(c)
DAV:   1     0.614048917957E+02    0.61405E+02   -0.12993E+03    32   0.346E+02
DAV:   2     0.658515390226E+01   -0.54820E+02   -0.54820E+02    24   0.116E+02
DAV:   3    -0.140369249928E+02   -0.20622E+02   -0.20622E+02    16   0.711E+01
DAV:   4    -0.163342231621E+02   -0.22973E+01   -0.22973E+01    16   0.254E+01
DAV:   5    -0.163555292394E+02   -0.21306E-01   -0.21306E-01    32   0.257E+00    0.786E+00
RMM:   6    -0.144398693845E+02    0.19157E+01   -0.76014E+00    16   0.205E+01    0.298E+00
RMM:   7    -0.143433465393E+02    0.96523E-01   -0.34056E-01    16   0.321E+00    0.203E+00
RMM:   8    -0.142675035859E+02    0.75843E-01   -0.13065E-01    16   0.393E+00    0.424E-01
RMM:   9    -0.142592897153E+02    0.82139E-02   -0.80472E-02    16   0.175E+00    0.266E-01
RMM:  10    -0.142596851905E+02   -0.39548E-03   -0.95674E-03    16   0.941E-01    0.173E-01
RMM:  11    -0.142620914362E+02   -0.24062E-02   -0.60513E-03    16   0.704E-01    0.768E-02
RMM:  12    -0.142685556253E+02   -0.64642E-02   -0.46554E-03    16   0.598E-01    0.652E-02
RMM:  13    -0.142702236077E+02   -0.16680E-02   -0.11923E-03    16   0.212E-01    0.157E-02
RMM:  14    -0.142715826018E+02   -0.13590E-02   -0.11864E-03    17   0.201E-01    0.361E-02
RMM:  15    -0.142719640950E+02   -0.38149E-03   -0.18110E-04    16   0.964E-02    0.932E-03
RMM:  16    -0.142722086453E+02   -0.24455E-03   -0.68456E-05    15   0.544E-02    0.460E-03
RMM:  17    -0.142723955468E+02   -0.18690E-03   -0.22470E-05    14   0.273E-02    0.483E-03
RMM:  18    -0.142724902993E+02   -0.94752E-04   -0.11462E-05    12   0.233E-02    0.131E-03
RMM:  19    -0.142725209493E+02   -0.30650E-04   -0.27078E-06    11   0.118E-02    0.551E-04
RMM:  20    -0.142725319794E+02   -0.11030E-04   -0.17976E-06    12   0.110E-02    0.154E-03
RMM:  21    -0.142725353869E+02   -0.34076E-05   -0.55231E-07    11   0.722E-03
   1 F= -.14272535E+02 E0= -.14272535E+02  d E =-.142725E+02
 curvature:   0.00 expect dE= 0.000E+00 dE for cont linesearch  0.000E+00
 trial: gam= 0.00000 g(F)=  0.873E-05 g(S)=  0.000E+00 ort = 0.000E+00 (trialstep = 0.100E+01)
 search vector abs. value=  0.873E-05
 reached required accuracy - stopping structural energy minimisation
 writing wavefunctions
