 running on   20 total cores
 distrk:  each k-point on   20 cores,    1 groups
 distr:  one band on    1 cores,   20 groups
 using from now: INCAR     
 vasp.5.4.1 05Feb16 (build Nov 22 2018 20:17:51) complex                        
  
 POSCAR found type information on POSCAR  Pd H 
 POSCAR found :  2 types and       5 ions
 scaLAPACK will be used

 ----------------------------------------------------------------------------- 
|                                                                             |
|           W    W    AA    RRRRR   N    N  II  N    N   GGGG   !!!           |
|           W    W   A  A   R    R  NN   N  II  NN   N  G    G  !!!           |
|           W    W  A    A  R    R  N N  N  II  N N  N  G       !!!           |
|           W WW W  AAAAAA  RRRRR   N  N N  II  N  N N  G  GGG   !            |
|           WW  WW  A    A  R   R   N   NN  II  N   NN  G    G                |
|           W    W  A    A  R    R  N    N  II  N    N   GGGG   !!!           |
|                                                                             |
|      For optimal performance we recommend to set                            |
|        NCORE= 4 - approx SQRT( number of cores)                             |
|      NCORE specifies how many cores store one orbital (NPAR=cpu/NCORE).     |
|      This setting can  greatly improve the performance of VASP for DFT.     |
|      The default, NPAR=number of cores might be grossly inefficient         |
|      on modern multi-core architectures or massively parallel machines.     |
|      Do your own testing !!!!                                               |
|      Unfortunately you need to use the default for GW and RPA calculations. |
|      (for HF NCORE is supported but not extensively tested yet)             |
|                                                                             |
 ----------------------------------------------------------------------------- 

 LDA part: xc-table for Ceperly-Alder, standard interpolation
 POSCAR found type information on POSCAR  Pd H 
 POSCAR found :  2 types and       5 ions
 POSCAR, INCAR and KPOINTS ok, starting setup
 WARNING: small aliasing (wrap around) errors must be expected
 FFT: planning ...
 WAVECAR not read
 entering main loop
       N       E                     dE             d eps       ncg     rms          rms(c)
DAV:   1     0.292170000089E+03    0.29217E+03   -0.18931E+04 40380   0.998E+02
DAV:   2    -0.189489035177E+02   -0.31112E+03   -0.27111E+03 40380   0.267E+02
DAV:   3    -0.252485958242E+02   -0.62997E+01   -0.62642E+01 58280   0.440E+01
DAV:   4    -0.253645072071E+02   -0.11591E+00   -0.11589E+00 53140   0.530E+00
DAV:   5    -0.253648857339E+02   -0.37853E-03   -0.37850E-03 58740   0.303E-01    0.646E+00
DAV:   6    -0.243304552033E+02    0.10344E+01   -0.19327E+00 54800   0.134E+01    0.108E+00
DAV:   7    -0.243088402834E+02    0.21615E-01   -0.10689E-01 45660   0.193E+00    0.576E-01
DAV:   8    -0.243030634374E+02    0.57768E-02   -0.13374E-02 55560   0.153E+00    0.572E-01
DAV:   9    -0.242985331977E+02    0.45302E-02   -0.64475E-03 49080   0.121E+00    0.150E-01
DAV:  10    -0.242982625739E+02    0.27062E-03   -0.97788E-04 56400   0.215E-01    0.470E-02
DAV:  11    -0.242982655878E+02   -0.30140E-05   -0.82376E-05 47480   0.125E-01
   1 F= -.24298266E+02 E0= -.24298144E+02  d E =-.242983E+02
 BRION: g(F)=  0.347E-05 g(S)=  0.169E-05
 reached required accuracy - stopping structural energy minimisation
 writing wavefunctions
