 running on   40 total cores
 distrk:  each k-point on   40 cores,    1 groups
 distr:  one band on    1 cores,   40 groups
 using from now: INCAR     
 vasp.5.4.1 05Feb16 (build Sep 02 2018 21:45:25) complex                        
  
 POSCAR found type information on POSCAR  Cu H 
 POSCAR found :  2 types and      65 ions
 scaLAPACK will be used

 ----------------------------------------------------------------------------- 
|                                                                             |
|           W    W    AA    RRRRR   N    N  II  N    N   GGGG   !!!           |
|           W    W   A  A   R    R  NN   N  II  NN   N  G    G  !!!           |
|           W    W  A    A  R    R  N N  N  II  N N  N  G       !!!           |
|           W WW W  AAAAAA  RRRRR   N  N N  II  N  N N  G  GGG   !            |
|           WW  WW  A    A  R   R   N   NN  II  N   NN  G    G                |
|           W    W  A    A  R    R  N    N  II  N    N   GGGG   !!!           |
|                                                                             |
|      For optimal performance we recommend to set                            |
|        NCORE= 4 - approx SQRT( number of cores)                             |
|      NCORE specifies how many cores store one orbital (NPAR=cpu/NCORE).     |
|      This setting can  greatly improve the performance of VASP for DFT.     |
|      The default, NPAR=number of cores might be grossly inefficient         |
|      on modern multi-core architectures or massively parallel machines.     |
|      Do your own testing !!!!                                               |
|      Unfortunately you need to use the default for GW and RPA calculations. |
|      (for HF NCORE is supported but not extensively tested yet)             |
|                                                                             |
 ----------------------------------------------------------------------------- 

 LDA part: xc-table for Ceperly-Alder, standard interpolation
 POSCAR, INCAR and KPOINTS ok, starting setup
 WARNING: small aliasing (wrap around) errors must be expected
 FFT: planning ...
 WAVECAR not read
 entering main loop
       N       E                     dE             d eps       ncg     rms          rms(c)
DAV:   1     0.535918511413E+04    0.53592E+04   -0.31371E+05 22000   0.190E+03
DAV:   2     0.269821650840E+03   -0.50894E+04   -0.48575E+04 22000   0.410E+02
DAV:   3    -0.260292549677E+03   -0.53011E+03   -0.50352E+03 23440   0.164E+02
DAV:   4    -0.275393118823E+03   -0.15101E+02   -0.15024E+02 24000   0.316E+01
DAV:   5    -0.275484880963E+03   -0.91762E-01   -0.91755E-01 24440   0.215E+00    0.532E+01
DAV:   6    -0.249994023430E+03    0.25491E+02   -0.54697E+02 25000   0.906E+01    0.270E+01
DAV:   7    -0.226637815776E+03    0.23356E+02   -0.10389E+02 24640   0.456E+01    0.442E+00
DAV:   8    -0.227753046085E+03   -0.11152E+01   -0.19594E+01 26240   0.393E+01    0.653E+00
DAV:   9    -0.226591273997E+03    0.11618E+01   -0.75702E+00 28880   0.244E+01    0.376E+00
DAV:  10    -0.226487674184E+03    0.10360E+00   -0.15955E+00 24280   0.769E+00    0.299E+00
DAV:  11    -0.226365896154E+03    0.12178E+00   -0.77293E-01 23520   0.491E+00    0.119E+00
DAV:  12    -0.226341978226E+03    0.23918E-01   -0.12591E-01 24240   0.209E+00    0.547E-01
DAV:  13    -0.226333634572E+03    0.83437E-02   -0.74120E-02 23440   0.163E+00    0.344E-01
DAV:  14    -0.226328875570E+03    0.47590E-02   -0.18384E-02 23760   0.117E+00    0.214E-01
DAV:  15    -0.226321137738E+03    0.77378E-02   -0.97900E-03 23440   0.756E-01    0.112E-01
DAV:  16    -0.226320772799E+03    0.36494E-03   -0.24458E-03 22920   0.405E-01    0.107E-01
DAV:  17    -0.226322411716E+03   -0.16389E-02   -0.19776E-03 22960   0.345E-01    0.704E-02
DAV:  18    -0.226326812355E+03   -0.44006E-02   -0.22318E-03 23200   0.262E-01    0.789E-02
DAV:  19    -0.226329763747E+03   -0.29514E-02   -0.80206E-04 24280   0.165E-01    0.888E-02
DAV:  20    -0.226331727823E+03   -0.19641E-02   -0.13639E-03 23560   0.301E-01    0.280E-02
DAV:  21    -0.226333241897E+03   -0.15141E-02   -0.22690E-03 38720   0.369E-01    0.615E-02
DAV:  22    -0.226333448141E+03   -0.20624E-03   -0.72651E-04 23200   0.101E-01    0.648E-02
DAV:  23    -0.226333348276E+03    0.99865E-04   -0.90713E-05 21040   0.548E-02    0.493E-02
DAV:  24    -0.226333294254E+03    0.54022E-04   -0.16443E-04 23640   0.757E-02    0.250E-02
DAV:  25    -0.226333321944E+03   -0.27690E-04   -0.15986E-04 23440   0.460E-02    0.229E-02
DAV:  26    -0.226333314448E+03    0.74959E-05   -0.39118E-05 15800   0.479E-02
   1 F= -.22633331E+03 E0= -.22633318E+03  d E =-.226333E+03
 curvature:   0.00 expect dE= 0.000E+00 dE for cont linesearch  0.000E+00
 trial: gam= 0.00000 g(F)=  0.449E-01 g(S)=  0.000E+00 ort = 0.000E+00 (trialstep = 0.100E+01)
 search vector abs. value=  0.449E-01
 bond charge predicted
       N       E                     dE             d eps       ncg     rms          rms(c)
DAV:   1    -0.226377651891E+03   -0.44330E-01   -0.86267E-01 22360   0.146E+00    0.658E-02
DAV:   2    -0.226377883434E+03   -0.23154E-03   -0.32843E-03 23760   0.178E-01    0.442E-02
DAV:   3    -0.226377882314E+03    0.11198E-05   -0.37999E-04 24000   0.188E-01    0.389E-02
DAV:   4    -0.226377867985E+03    0.14329E-04   -0.33732E-04 23760   0.207E-01    0.259E-02
DAV:   5    -0.226377848399E+03    0.19586E-04   -0.23955E-04 22400   0.162E-01    0.118E-02
DAV:   6    -0.226377842580E+03    0.58193E-05   -0.47205E-05 15720   0.581E-02
   2 F= -.22637784E+03 E0= -.22637771E+03  d E =-.445281E-01
 ZBRENT: can't locate minimum, use default step
 trial-energy change:   -0.044528  1 .order   -0.044620   -0.044879   -0.044360
 step:   4.0000(harm= 86.4878)  dis= 0.02458  next Energy=  -228.274058 (dE=-0.194E+01)
 bond charge predicted
       N       E                     dE             d eps       ncg     rms          rms(c)
DAV:   1    -0.226507552658E+03   -0.12970E+00   -0.77867E+00 22000   0.438E+00    0.192E-01
DAV:   2    -0.226509806121E+03   -0.22535E-02   -0.30312E-02 23880   0.537E-01    0.128E-01
DAV:   3    -0.226510366213E+03   -0.56009E-03   -0.76326E-03 24920   0.932E-01    0.153E-01
DAV:   4    -0.226509493745E+03    0.87247E-03   -0.62559E-03 24640   0.820E-01    0.595E-02
DAV:   5    -0.226509383503E+03    0.11024E-03   -0.77692E-04 35360   0.287E-01    0.245E-02
DAV:   6    -0.226509388005E+03   -0.45020E-05   -0.24701E-04 22960   0.119E-01    0.139E-02
DAV:   7    -0.226509396588E+03   -0.85821E-05   -0.70320E-05 23320   0.404E-02
   3 F= -.22650940E+03 E0= -.22650926E+03  d E =-.176082E+00
 curvature:  -2.98 expect dE=-0.125E+00 dE for cont linesearch -0.124E+00
 ZBRENT: increasing intervall
 opt :  10.0000  next Energy=  -226.761702 (dE=-0.428E+00)
 bond charge predicted
       N       E                     dE             d eps       ncg     rms          rms(c)
DAV:   1    -0.226748958752E+03   -0.23957E+00   -0.31392E+01 22000   0.882E+00    0.385E-01
DAV:   2    -0.226759210802E+03   -0.10252E-01   -0.13220E-01 23880   0.111E+00    0.277E-01
DAV:   3    -0.226760553318E+03   -0.13425E-02   -0.26896E-02 24880   0.177E+00    0.301E-01
DAV:   4    -0.226758554597E+03    0.19987E-02   -0.25111E-02 31840   0.161E+00    0.171E-01
DAV:   5    -0.226757385424E+03    0.11692E-02   -0.57601E-03 36240   0.783E-01    0.479E-02
DAV:   6    -0.226757417133E+03   -0.31709E-04   -0.10384E-03 22600   0.198E-01    0.269E-02
DAV:   7    -0.226757447580E+03   -0.30447E-04   -0.29004E-04 22720   0.112E-01    0.227E-02
DAV:   8    -0.226757467269E+03   -0.19689E-04   -0.80934E-05 22240   0.740E-02    0.118E-02
DAV:   9    -0.226757495664E+03   -0.28395E-04   -0.20437E-05 17320   0.345E-02    0.600E-03
DAV:  10    -0.226757542796E+03   -0.47133E-04   -0.21476E-05 21120   0.190E-02    0.679E-03
DAV:  11    -0.226757556082E+03   -0.13286E-04   -0.46010E-06 16000   0.166E-02    0.551E-03
DAV:  12    -0.226757586309E+03   -0.30227E-04   -0.85358E-06 14440   0.185E-02    0.165E-03
DAV:  13    -0.226757597558E+03   -0.11249E-04   -0.60107E-06 15520   0.863E-03    0.255E-03
DAV:  14    -0.226757598791E+03   -0.12338E-05   -0.11917E-06 14640   0.927E-03
   4 F= -.22675760E+03 E0= -.22675746E+03  d E =-.424284E+00
 curvature:  -6.07 expect dE=-0.220E+00 dE for cont linesearch -0.206E+00
 ZBRENT: increasing intervall
 opt :  22.0000  next Energy=  -227.176650 (dE=-0.843E+00)
 bond charge predicted
       N       E                     dE             d eps       ncg     rms          rms(c)
DAV:   1    -0.227096081792E+03   -0.33848E+00   -0.12925E+02 22000   0.181E+01    0.816E-01
DAV:   2    -0.227149830356E+03   -0.53749E-01   -0.64634E-01 24000   0.280E+00    0.677E-01
DAV:   3    -0.227151749105E+03   -0.19187E-02   -0.12952E-01 25000   0.370E+00    0.566E-01
DAV:   4    -0.227150131772E+03    0.16173E-02   -0.10669E-01 32280   0.328E+00    0.449E-01
DAV:   5    -0.227141910917E+03    0.82209E-02   -0.36527E-02 34600   0.196E+00    0.112E-01
DAV:   6    -0.227142062139E+03   -0.15122E-03   -0.51238E-03 23360   0.372E-01    0.524E-02
DAV:   7    -0.227142122306E+03   -0.60167E-04   -0.12431E-03 23240   0.223E-01    0.353E-02
DAV:   8    -0.227142128470E+03   -0.61645E-05   -0.23316E-04 22720   0.102E-01    0.196E-02
DAV:   9    -0.227142177891E+03   -0.49421E-04   -0.98470E-05 22160   0.528E-02    0.106E-02
DAV:  10    -0.227142228607E+03   -0.50716E-04   -0.31063E-05 21160   0.470E-02    0.119E-02
DAV:  11    -0.227142259705E+03   -0.31098E-04   -0.10147E-05 14360   0.287E-02    0.812E-03
DAV:  12    -0.227142339067E+03   -0.79361E-04   -0.25444E-05 20600   0.201E-02    0.453E-03
DAV:  13    -0.227142355808E+03   -0.16742E-04   -0.62235E-06 16160   0.165E-02    0.280E-03
DAV:  14    -0.227142370359E+03   -0.14551E-04   -0.62150E-06 14520   0.923E-03    0.234E-03
DAV:  15    -0.227142375843E+03   -0.54837E-05   -0.44345E-06 15280   0.141E-02
   5 F= -.22714238E+03 E0= -.22714224E+03  d E =-.809061E+00
 curvature: -12.32 expect dE=-0.275E+00 dE for cont linesearch -0.139E+00
 ZBRENT: increasing intervall
 opt :  46.0000  next Energy=  -227.285026 (dE=-0.952E+00)
 bond charge predicted
       N       E                     dE             d eps       ncg     rms          rms(c)
DAV:   1    -0.226457371856E+03    0.68500E+00   -0.57594E+02 22000   0.397E+01    0.202E+00
DAV:   2    -0.226758183454E+03   -0.30081E+00   -0.37476E+00 25240   0.640E+00    0.162E+00
DAV:   3    -0.226764414100E+03   -0.62306E-02   -0.68165E-01 25000   0.837E+00    0.135E+00
DAV:   4    -0.226773850281E+03   -0.94362E-02   -0.62903E-01 30640   0.792E+00    0.112E+00
DAV:   5    -0.226721131104E+03    0.52719E-01   -0.25983E-01 33520   0.514E+00    0.220E-01
DAV:   6    -0.226722299552E+03   -0.11684E-02   -0.28176E-02 23480   0.895E-01    0.134E-01
DAV:   7    -0.226722604923E+03   -0.30537E-03   -0.72932E-03 23880   0.521E-01    0.818E-02
DAV:   8    -0.226722588087E+03    0.16836E-04   -0.13145E-03 22720   0.185E-01    0.348E-02
DAV:   9    -0.226722680563E+03   -0.92476E-04   -0.26410E-04 23320   0.110E-01    0.210E-02
DAV:  10    -0.226722730645E+03   -0.50081E-04   -0.89324E-05 23320   0.966E-02    0.150E-02
DAV:  11    -0.226722789950E+03   -0.59305E-04   -0.23486E-05 17720   0.423E-02    0.914E-03
DAV:  12    -0.226722883679E+03   -0.93729E-04   -0.31225E-05 20400   0.265E-02    0.426E-03
DAV:  13    -0.226722911990E+03   -0.28311E-04   -0.92812E-06 15640   0.197E-02    0.574E-03
DAV:  14    -0.226722938549E+03   -0.26560E-04   -0.10234E-05 14680   0.219E-02    0.198E-03
DAV:  15    -0.226722948548E+03   -0.99989E-05   -0.63683E-06 15680   0.569E-03
   6 F= -.22672295E+03 E0= -.22672223E+03  d E =-.389634E+00
 curvature: -12.64 expect dE=-0.334E+01 dE for cont linesearch -0.154E+01
 ZBRENT: bracketing found
 ZBRENT: interpolating
 opt :  27.5985  next Energy=  -227.205368 (dE=-0.872E+00)
 bond charge predicted
       N       E                     dE             d eps       ncg     rms          rms(c)
DAV:   1    -0.227076569810E+03   -0.35363E+00   -0.32261E+02 22240   0.279E+01    0.170E+00
DAV:   2    -0.227279094056E+03   -0.20252E+00   -0.25318E+00 25880   0.844E+00    0.176E+00
DAV:   3    -0.227240308406E+03    0.38786E-01   -0.28199E-01 24560   0.578E+00    0.832E-01
DAV:   4    -0.227271643413E+03   -0.31335E-01   -0.29743E-01 35600   0.523E+00    0.879E-01
DAV:   5    -0.227233012788E+03    0.38631E-01   -0.27583E-01 25160   0.524E+00    0.359E-01
DAV:   6    -0.227231559662E+03    0.14531E-02   -0.22513E-02 24680   0.107E+00    0.138E-01
DAV:   7    -0.227231570919E+03   -0.11258E-04   -0.50725E-03 26000   0.448E-01    0.666E-02
DAV:   8    -0.227231665728E+03   -0.94809E-04   -0.19030E-03 23400   0.268E-01    0.403E-02
DAV:   9    -0.227231706066E+03   -0.40337E-04   -0.37901E-04 22040   0.122E-01    0.193E-02
DAV:  10    -0.227231733460E+03   -0.27395E-04   -0.82899E-05 23280   0.755E-02    0.112E-02
DAV:  11    -0.227231753701E+03   -0.20241E-04   -0.38238E-05 21680   0.510E-02    0.789E-03
DAV:  12    -0.227231773101E+03   -0.19400E-04   -0.14543E-05 15760   0.246E-02    0.484E-03
DAV:  13    -0.227231792998E+03   -0.19897E-04   -0.10060E-05 15600   0.181E-02    0.278E-03
DAV:  14    -0.227231799346E+03   -0.63479E-05   -0.35825E-06 15640   0.103E-02
   7 F= -.22723180E+03 E0= -.22723166E+03  d E =-.898485E+00
 curvature:  -0.52 expect dE=-0.109E-01 dE for cont linesearch -0.866E-03
 ZBRENT: interpolating
 opt :  30.7412  next Energy=  -227.246860 (dE=-0.914E+00)
 bond charge predicted
       N       E                     dE             d eps       ncg     rms          rms(c)
DAV:   1    -0.227241457872E+03   -0.96649E-02   -0.86766E+00 22600   0.462E+00    0.236E-01
DAV:   2    -0.227244661739E+03   -0.32039E-02   -0.40989E-02 24000   0.535E-01    0.162E-01
DAV:   3    -0.227245701154E+03   -0.10394E-02   -0.10486E-02 24880   0.111E+00    0.194E-01
DAV:   4    -0.227244360436E+03    0.13407E-02   -0.10338E-02 31240   0.104E+00    0.597E-02
DAV:   5    -0.227244223688E+03    0.13675E-03   -0.97017E-04 33880   0.303E-01    0.186E-02
DAV:   6    -0.227244231758E+03   -0.80706E-05   -0.23240E-04 24000   0.888E-02    0.124E-02
DAV:   7    -0.227244232969E+03   -0.12108E-05   -0.51466E-05 23720   0.401E-02
   8 F= -.22724423E+03 E0= -.22724408E+03  d E =-.910919E+00
 curvature:  -8.98 expect dE=-0.237E+00 dE for cont linesearch -0.234E-03
 trial: gam= 0.61090 g(F)=  0.263E-01 g(S)=  0.000E+00 ort =-0.108E-02 (trialstep = 0.695E+01)
 search vector abs. value=  0.418E-01
 bond charge predicted
       N       E                     dE             d eps       ncg     rms          rms(c)
DAV:   1    -0.227361186608E+03   -0.11695E+00   -0.39699E+01 22240   0.101E+01    0.478E-01
DAV:   2    -0.227374410507E+03   -0.13224E-01   -0.17439E-01 24000   0.125E+00    0.340E-01
DAV:   3    -0.227375438325E+03   -0.10278E-02   -0.25806E-02 25320   0.172E+00    0.333E-01
DAV:   4    -0.227373968448E+03    0.14699E-02   -0.33480E-02 26440   0.194E+00    0.225E-01
DAV:   5    -0.227372237833E+03    0.17306E-02   -0.13309E-02 27560   0.120E+00    0.472E-02
DAV:   6    -0.227372216656E+03    0.21176E-04   -0.16624E-03 30240   0.207E-01    0.300E-02
DAV:   7    -0.227372220923E+03   -0.42671E-05   -0.33019E-04 24120   0.898E-02    0.238E-02
DAV:   8    -0.227372211678E+03    0.92459E-05   -0.62888E-05 22920   0.561E-02
   9 F= -.22737221E+03 E0= -.22737189E+03  d E =-.127979E+00
 trial-energy change:   -0.127979  1 .order   -0.128698   -0.178400   -0.078995
 step:  12.9560(harm= 12.4698)  dis= 0.06163  next Energy=  -227.405898 (dE=-0.162E+00)
 bond charge predicted
       N       E                     dE             d eps       ncg     rms          rms(c)
DAV:   1    -0.227400416836E+03   -0.28196E-01   -0.29618E+01 22000   0.876E+00    0.422E-01
DAV:   2    -0.227409996532E+03   -0.95797E-02   -0.12998E-01 24000   0.108E+00    0.299E-01
DAV:   3    -0.227411972330E+03   -0.19758E-02   -0.27222E-02 25080   0.176E+00    0.323E-01
DAV:   4    -0.227409224218E+03    0.27481E-02   -0.30610E-02 25880   0.182E+00    0.168E-01
DAV:   5    -0.227408330384E+03    0.89383E-03   -0.68520E-03 35120   0.862E-01    0.419E-02
DAV:   6    -0.227408321727E+03    0.86568E-05   -0.10224E-03 27920   0.176E-01    0.261E-02
DAV:   7    -0.227408323097E+03   -0.13706E-05   -0.20991E-04 23560   0.896E-02    0.200E-02
DAV:   8    -0.227408315624E+03    0.74734E-05   -0.62409E-05 22760   0.536E-02
  10 F= -.22740832E+03 E0= -.22740776E+03  d E =-.164083E+00
 curvature: -10.06 expect dE=-0.612E-01 dE for cont linesearch -0.130E-03
 trial: gam=-0.03827 g(F)=  0.609E-02 g(S)=  0.000E+00 ort = 0.734E-03 (trialstep = 0.815E+01)
 search vector abs. value=  0.609E-02
 bond charge predicted
       N       E                     dE             d eps       ncg     rms          rms(c)
DAV:   1    -0.227439949475E+03   -0.31626E-01   -0.20006E+01 22000   0.705E+00    0.311E-01
DAV:   2    -0.227445426067E+03   -0.54766E-02   -0.74671E-02 24000   0.138E+00    0.312E-01
DAV:   3    -0.227444559114E+03    0.86695E-03   -0.12299E-02 24280   0.106E+00    0.164E-01
DAV:   4    -0.227444350636E+03    0.20848E-03   -0.46469E-03 34840   0.502E-01    0.853E-02
DAV:   5    -0.227444104690E+03    0.24595E-03   -0.55367E-03 26040   0.737E-01    0.721E-02
DAV:   6    -0.227443960111E+03    0.14458E-03   -0.90178E-04 24760   0.300E-01    0.211E-02
DAV:   7    -0.227443968654E+03   -0.85432E-05   -0.21342E-04 24600   0.632E-02    0.122E-02
DAV:   8    -0.227443967761E+03    0.89288E-06   -0.41749E-05 23280   0.422E-02
  11 F= -.22744397E+03 E0= -.22744349E+03  d E =-.356521E-01
 trial-energy change:   -0.035652  1 .order   -0.035661   -0.049374   -0.021948
 step:  14.6717(harm= 14.6717)  dis= 0.02247  next Energy=  -227.452758 (dE=-0.444E-01)
 bond charge predicted
       N       E                     dE             d eps       ncg     rms          rms(c)
DAV:   1    -0.227450408201E+03   -0.64395E-02   -0.12778E+01 22000   0.564E+00    0.245E-01
DAV:   2    -0.227453757174E+03   -0.33490E-02   -0.45749E-02 24640   0.105E+00    0.240E-01
DAV:   3    -0.227453310988E+03    0.44619E-03   -0.77468E-03 24880   0.828E-01    0.133E-01
DAV:   4    -0.227453247459E+03    0.63528E-04   -0.35005E-03 37320   0.490E-01    0.805E-02
DAV:   5    -0.227452963948E+03    0.28351E-03   -0.36316E-03 25760   0.601E-01    0.467E-02
DAV:   6    -0.227452913835E+03    0.50112E-04   -0.46729E-04 24560   0.191E-01    0.152E-02
DAV:   7    -0.227452920380E+03   -0.65444E-05   -0.12764E-04 23680   0.467E-02    0.947E-03
DAV:   8    -0.227452919957E+03    0.42301E-06   -0.21973E-05 15520   0.322E-02
  12 F= -.22745292E+03 E0= -.22745252E+03  d E =-.446043E-01
 curvature:  -7.38 expect dE=-0.176E-01 dE for cont linesearch -0.514E-05
 trial: gam= 0.37325 g(F)=  0.238E-02 g(S)=  0.000E+00 ort = 0.652E-04 (trialstep = 0.945E+01)
 search vector abs. value=  0.328E-02
 bond charge predicted
       N       E                     dE             d eps       ncg     rms          rms(c)
DAV:   1    -0.227469923114E+03   -0.17003E-01   -0.11714E+01 22000   0.542E+00    0.282E-01
DAV:   2    -0.227472282239E+03   -0.23591E-02   -0.39825E-02 23680   0.110E+00    0.247E-01
DAV:   3    -0.227471950397E+03    0.33184E-03   -0.12184E-02 25000   0.113E+00    0.164E-01
DAV:   4    -0.227472588971E+03   -0.63857E-03   -0.13020E-02 25880   0.117E+00    0.174E-01
DAV:   5    -0.227471281958E+03    0.13070E-02   -0.64761E-03 33960   0.797E-01    0.341E-02
DAV:   6    -0.227471308881E+03   -0.26923E-04   -0.62002E-04 23520   0.129E-01    0.170E-02
DAV:   7    -0.227471314452E+03   -0.55706E-05   -0.14529E-04 24000   0.665E-02    0.964E-03
DAV:   8    -0.227471313050E+03    0.14016E-05   -0.16521E-05 14840   0.203E-02
  13 F= -.22747131E+03 E0= -.22747092E+03  d E =-.183931E-01
 trial-energy change:   -0.018393  1 .order   -0.018113   -0.022756   -0.013469
 step:  19.4432(harm= 23.1649)  dis= 0.01770  next Energy=  -227.478759 (dE=-0.258E-01)
 bond charge predicted
       N       E                     dE             d eps       ncg     rms          rms(c)
DAV:   1    -0.227477864756E+03   -0.65503E-02   -0.13081E+01 22000   0.573E+00    0.299E-01
DAV:   2    -0.227480627194E+03   -0.27624E-02   -0.45053E-02 23600   0.116E+00    0.261E-01
DAV:   3    -0.227480222979E+03    0.40422E-03   -0.12924E-02 25000   0.116E+00    0.172E-01
DAV:   4    -0.227481079844E+03   -0.85687E-03   -0.14606E-02 26160   0.124E+00    0.188E-01
DAV:   5    -0.227479516657E+03    0.15632E-02   -0.78274E-03 34160   0.880E-01    0.361E-02
DAV:   6    -0.227479547665E+03   -0.31009E-04   -0.70559E-04 23720   0.137E-01    0.181E-02
DAV:   7    -0.227479553049E+03   -0.53839E-05   -0.15530E-04 24000   0.694E-02    0.102E-02
DAV:   8    -0.227479551376E+03    0.16736E-05   -0.17096E-05 14920   0.214E-02
  14 F= -.22747955E+03 E0= -.22747916E+03  d E =-.266314E-01
 curvature: -14.62 expect dE=-0.193E-01 dE for cont linesearch -0.232E-03
 trial: gam= 0.36992 g(F)=  0.132E-02 g(S)=  0.000E+00 ort = 0.228E-03 (trialstep = 0.115E+02)
 search vector abs. value=  0.194E-02
 bond charge predicted
       N       E                     dE             d eps       ncg     rms          rms(c)
DAV:   1    -0.227491257913E+03   -0.11705E-01   -0.67535E+00 22000   0.423E+00    0.198E-01
DAV:   2    -0.227492820415E+03   -0.15625E-02   -0.23911E-02 23520   0.655E-01    0.162E-01
DAV:   3    -0.227492851544E+03   -0.31129E-04   -0.55757E-03 24960   0.762E-01    0.131E-01
DAV:   4    -0.227493058947E+03   -0.20740E-03   -0.72443E-03 26000   0.878E-01    0.120E-01
DAV:   5    -0.227492384538E+03    0.67441E-03   -0.35851E-03 35920   0.600E-01    0.240E-02
DAV:   6    -0.227492401644E+03   -0.17106E-04   -0.35779E-04 23840   0.743E-02    0.128E-02
DAV:   7    -0.227492402875E+03   -0.12317E-05   -0.49936E-05 23480   0.363E-02
  15 F= -.22749240E+03 E0= -.22749194E+03  d E =-.128515E-01
 trial-energy change:   -0.012851  1 .order   -0.012633   -0.016087   -0.009179
 step:  22.5375(harm= 26.6695)  dis= 0.00893  next Energy=  -227.497044 (dE=-0.175E-01)
 bond charge predicted
       N       E                     dE             d eps       ncg     rms          rms(c)
DAV:   1    -0.227497081671E+03   -0.46800E-02   -0.63311E+00 22000   0.410E+00    0.192E-01
DAV:   2    -0.227498600656E+03   -0.15190E-02   -0.22582E-02 23520   0.653E-01    0.159E-01
DAV:   3    -0.227498655097E+03   -0.54441E-04   -0.55469E-03 25000   0.756E-01    0.127E-01
DAV:   4    -0.227498851287E+03   -0.19619E-03   -0.68669E-03 25800   0.855E-01    0.117E-01
DAV:   5    -0.227498217857E+03    0.63343E-03   -0.32622E-03 35720   0.574E-01    0.226E-02
DAV:   6    -0.227498235617E+03   -0.17760E-04   -0.33721E-04 23880   0.733E-02    0.127E-02
DAV:   7    -0.227498237022E+03   -0.14051E-05   -0.49918E-05 23520   0.377E-02
  16 F= -.22749824E+03 E0= -.22749770E+03  d E =-.186856E-01
 curvature: -17.04 expect dE=-0.570E-02 dE for cont linesearch -0.344E-03
 ZBRENT: extrapolating
 opt :  26.1668  next Energy=  -227.498596 (dE=-0.190E-01)
 bond charge predicted
       N       E                     dE             d eps       ncg     rms          rms(c)
DAV:   1    -0.227498599350E+03   -0.36373E-03   -0.67842E-01 22080   0.134E+00    0.623E-02
DAV:   2    -0.227498770050E+03   -0.17070E-03   -0.23974E-03 23280   0.205E-01    0.503E-02
DAV:   3    -0.227498781865E+03   -0.11815E-04   -0.57253E-04 25000   0.241E-01    0.418E-02
DAV:   4    -0.227498804595E+03   -0.22730E-04   -0.70912E-04 25640   0.276E-01    0.377E-02
DAV:   5    -0.227498740342E+03    0.64253E-04   -0.33276E-04 27120   0.186E-01    0.671E-03
DAV:   6    -0.227498742596E+03   -0.22539E-05   -0.39871E-05 22800   0.237E-02
  17 F= -.22749874E+03 E0= -.22749819E+03  d E =-.191912E-01
 curvature: -17.79 expect dE=-0.855E-02 dE for cont linesearch -0.136E-04
 trial: gam= 0.46480 g(F)=  0.481E-03 g(S)=  0.000E+00 ort = 0.385E-04 (trialstep = 0.144E+02)
 search vector abs. value=  0.935E-03
 bond charge predicted
       N       E                     dE             d eps       ncg     rms          rms(c)
DAV:   1    -0.227502262280E+03   -0.35219E-02   -0.67638E+00 22000   0.419E+00    0.182E-01
DAV:   2    -0.227503910778E+03   -0.16485E-02   -0.23630E-02 24080   0.703E-01    0.168E-01
DAV:   3    -0.227503817115E+03    0.93663E-04   -0.50053E-03 25000   0.673E-01    0.113E-01
DAV:   4    -0.227504118916E+03   -0.30180E-03   -0.55998E-03 25880   0.764E-01    0.115E-01
DAV:   5    -0.227503496875E+03    0.62204E-03   -0.36258E-03 34320   0.598E-01    0.215E-02
DAV:   6    -0.227503513175E+03   -0.16300E-04   -0.34005E-04 24000   0.799E-02    0.130E-02
DAV:   7    -0.227503514084E+03   -0.90874E-06   -0.52760E-05 24000   0.408E-02
  18 F= -.22750351E+03 E0= -.22750292E+03  d E =-.477149E-02
 trial-energy change:   -0.004771  1 .order   -0.004509   -0.007174   -0.001843
 step:  18.0266(harm= 19.3712)  dis= 0.00854  next Energy=  -227.503751 (dE=-0.501E-02)
 bond charge predicted
       N       E                     dE             d eps       ncg     rms          rms(c)
DAV:   1    -0.227503760313E+03   -0.24714E-03   -0.43007E-01 22000   0.106E+00    0.448E-02
DAV:   2    -0.227503870030E+03   -0.10972E-03   -0.14414E-03 24440   0.165E-01    0.403E-02
DAV:   3    -0.227503873181E+03   -0.31509E-05   -0.33893E-04 25000   0.170E-01    0.294E-02
DAV:   4    -0.227503889453E+03   -0.16272E-04   -0.34109E-04 24880   0.191E-01    0.280E-02
DAV:   5    -0.227503855881E+03    0.33572E-04   -0.19912E-04 22760   0.143E-01    0.445E-03
DAV:   6    -0.227503857023E+03   -0.11423E-05   -0.23288E-05 17800   0.204E-02
  19 F= -.22750386E+03 E0= -.22750325E+03  d E =-.511443E-02
 curvature: -16.84 expect dE=-0.195E-02 dE for cont linesearch -0.221E-04
 trial: gam= 0.18323 g(F)=  0.116E-03 g(S)=  0.000E+00 ort = 0.350E-04 (trialstep = 0.151E+02)
 search vector abs. value=  0.160E-03
 bond charge predicted
       N       E                     dE             d eps       ncg     rms          rms(c)
DAV:   1    -0.227504336697E+03   -0.48082E-03   -0.14713E+00 22000   0.197E+00    0.883E-02
DAV:   2    -0.227504765946E+03   -0.42925E-03   -0.56413E-03 23520   0.334E-01    0.762E-02
DAV:   3    -0.227504811192E+03   -0.45246E-04   -0.16874E-03 25000   0.398E-01    0.612E-02
DAV:   4    -0.227504818381E+03   -0.71894E-05   -0.14160E-03 24880   0.389E-01    0.515E-02
DAV:   5    -0.227504711551E+03    0.10683E-03   -0.48185E-04 30160   0.229E-01    0.111E-02
DAV:   6    -0.227504715872E+03   -0.43209E-05   -0.75974E-05 23800   0.408E-02
  20 F= -.22750472E+03 E0= -.22750410E+03  d E =-.858849E-03
 trial-energy change:   -0.000859  1 .order   -0.000812   -0.001847    0.000223
 step:  13.6710(harm= 13.4934)  dis= 0.00249  next Energy=  -227.504727 (dE=-0.869E-03)
 bond charge predicted
       N       E                     dE             d eps       ncg     rms          rms(c)
DAV:   1    -0.227504721099E+03   -0.95481E-05   -0.13535E-02 22000   0.190E-01    0.971E-03
DAV:   2    -0.227504722526E+03   -0.14267E-05   -0.48373E-05 23160   0.244E-02
  21 F= -.22750472E+03 E0= -.22750411E+03  d E =-.865503E-03
 curvature:  -8.73 expect dE=-0.154E-03 dE for cont linesearch -0.111E-06
 trial: gam= 0.21201 g(F)=  0.176E-04 g(S)=  0.000E+00 ort = 0.143E-05 (trialstep = 0.148E+02)
 search vector abs. value=  0.254E-04
 bond charge predicted
       N       E                     dE             d eps       ncg     rms          rms(c)
DAV:   1    -0.227504847399E+03   -0.12630E-03   -0.26336E-01 22000   0.836E-01    0.301E-02
DAV:   2    -0.227504913390E+03   -0.65991E-04   -0.82671E-04 24160   0.132E-01    0.289E-02
DAV:   3    -0.227504914788E+03   -0.13982E-05   -0.27756E-04 24880   0.155E-01    0.235E-02
DAV:   4    -0.227504907010E+03    0.77784E-05   -0.94284E-05 24880   0.103E-01
  22 F= -.22750491E+03 E0= -.22750429E+03  d E =-.184484E-03
 trial-energy change:   -0.000184  1 .order   -0.000142   -0.000266   -0.000018
 step:  15.3407(harm= 15.8834)  dis= 0.00134  next Energy=  -227.504907 (dE=-0.185E-03)
 bond charge predicted
       N       E                     dE             d eps       ncg     rms          rms(c)
DAV:   1    -0.227504904527E+03    0.10261E-04   -0.34012E-04 33880   0.682E-02    0.346E-03
DAV:   2    -0.227504909180E+03   -0.46523E-05   -0.41987E-05 15640   0.574E-02
  23 F= -.22750491E+03 E0= -.22750429E+03  d E =-.186654E-03
 curvature:  -8.26 expect dE=-0.766E-04 dE for cont linesearch -0.235E-05
 trial: gam= 0.58601 g(F)=  0.927E-05 g(S)=  0.000E+00 ort =-0.269E-05 (trialstep = 0.149E+02)
 search vector abs. value=  0.148E-04
 bond charge predicted
       N       E                     dE             d eps       ncg     rms          rms(c)
DAV:   1    -0.227504971414E+03   -0.66887E-04   -0.13885E-01 22000   0.611E-01    0.249E-02
DAV:   2    -0.227505004839E+03   -0.33425E-04   -0.43136E-04 24680   0.928E-02    0.229E-02
DAV:   3    -0.227505008153E+03   -0.33143E-05   -0.14202E-04 25000   0.113E-01    0.173E-02
DAV:   4    -0.227505008298E+03   -0.14545E-06   -0.10222E-04 15880   0.106E-01    0.140E-02
DAV:   5    -0.227505002451E+03    0.58477E-05   -0.35245E-05 15840   0.629E-02
  24 F= -.22750500E+03 E0= -.22750438E+03  d E =-.932711E-04
 trial-energy change:   -0.000093  1 .order   -0.000065   -0.000115   -0.000015
 step:  17.1606(harm= 17.1606)  dis= 0.00104  next Energy=  -227.504975 (dE=-0.660E-04)
 bond charge predicted
       N       E                     dE             d eps       ncg     rms          rms(c)
DAV:   1    -0.227505002982E+03    0.53162E-05   -0.31036E-03 22000   0.924E-02    0.391E-03
DAV:   2    -0.227505004645E+03   -0.16626E-05   -0.12663E-05 15560   0.305E-02
  25 F= -.22750500E+03 E0= -.22750438E+03  d E =-.954652E-04
 curvature: -16.57 expect dE=-0.676E-04 dE for cont linesearch -0.121E-06
 trial: gam= 0.41018 g(F)=  0.408E-05 g(S)=  0.000E+00 ort =-0.329E-06 (trialstep = 0.154E+02)
 search vector abs. value=  0.631E-05
 reached required accuracy - stopping structural energy minimisation
 writing wavefunctions
