 running on   35 total cores
 distrk:  each k-point on   35 cores,    1 groups
 distr:  one band on    1 cores,   35 groups
 using from now: INCAR     
 vasp.5.4.1 24Jun15 (build Oct 26 2018 17:15:27) complex                        
  
 POSCAR found type information on POSCAR  Cu
 POSCAR found :  1 types and      15 ions
 scaLAPACK will be used

 ----------------------------------------------------------------------------- 
|                                                                             |
|           W    W    AA    RRRRR   N    N  II  N    N   GGGG   !!!           |
|           W    W   A  A   R    R  NN   N  II  NN   N  G    G  !!!           |
|           W    W  A    A  R    R  N N  N  II  N N  N  G       !!!           |
|           W WW W  AAAAAA  RRRRR   N  N N  II  N  N N  G  GGG   !            |
|           WW  WW  A    A  R   R   N   NN  II  N   NN  G    G                |
|           W    W  A    A  R    R  N    N  II  N    N   GGGG   !!!           |
|                                                                             |
|      For optimal performance we recommend to set                            |
|        NCORE= 4 - approx SQRT( number of cores)                             |
|      NCORE specifies how many cores store one orbital (NPAR=cpu/NCORE).     |
|      This setting can  greatly improve the performance of VASP for DFT.     |
|      The default, NPAR=number of cores might be grossly inefficient         |
|      on modern multi-core architectures or massively parallel machines.     |
|      Do your own testing !!!!                                               |
|      Unfortunately you need to use the default for GW and RPA calculations. |
|      (for HF NCORE is supported but not extensively tested yet)             |
|                                                                             |
 ----------------------------------------------------------------------------- 

 LDA part: xc-table for Ceperly-Alder, standard interpolation
 POSCAR, INCAR and KPOINTS ok, starting setup
 WARNING: small aliasing (wrap around) errors must be expected
 FFT: planning ...
 WAVECAR not read
 entering main loop
       N       E                     dE             d eps       ncg     rms          rms(c)
DAV:   1     0.989552432053E+03    0.98955E+03   -0.75924E+04  6720   0.176E+03
DAV:   2    -0.133403879650E+02   -0.10029E+04   -0.97604E+03  6720   0.340E+02
DAV:   3    -0.627432474119E+02   -0.49403E+02   -0.49056E+02  8960   0.108E+02
DAV:   4    -0.631370116269E+02   -0.39376E+00   -0.39373E+00  7105   0.103E+01
DAV:   5    -0.631395663074E+02   -0.25547E-02   -0.25547E-02  9975   0.557E-01    0.247E+01
DAV:   6    -0.569299462877E+02    0.62096E+01   -0.12116E+02  8225   0.855E+01    0.122E+01
DAV:   7    -0.520268973333E+02    0.49030E+01   -0.22974E+01  8785   0.442E+01    0.275E+00
DAV:   8    -0.522191941229E+02   -0.19230E+00   -0.51809E+00  8575   0.345E+01    0.289E+00
DAV:   9    -0.523808000088E+02   -0.16161E+00   -0.80606E+00  9030   0.368E+01    0.317E+00
DAV:  10    -0.520040602566E+02    0.37674E+00   -0.34517E+00 11935   0.209E+01    0.144E+00
DAV:  11    -0.519756499676E+02    0.28410E-01   -0.16436E-01  7770   0.418E+00    0.633E-01
DAV:  12    -0.519689690145E+02    0.66810E-02   -0.67956E-02  8785   0.373E+00    0.186E-01
DAV:  13    -0.519712560029E+02   -0.22870E-02   -0.67917E-02  9905   0.320E+00    0.223E-01
DAV:  14    -0.519664916233E+02    0.47644E-02   -0.58690E-02 11130   0.293E+00    0.769E-02
DAV:  15    -0.519660593859E+02    0.43224E-03   -0.67959E-03 10185   0.876E-01    0.656E-02
DAV:  16    -0.519659649903E+02    0.94396E-04   -0.21216E-03  6930   0.648E-01    0.423E-02
DAV:  17    -0.519675143174E+02   -0.15493E-02   -0.11090E-02 11620   0.122E+00    0.103E-01
DAV:  18    -0.519670641262E+02    0.45019E-03   -0.21616E-03  9275   0.569E-01    0.624E-02
DAV:  19    -0.519672392816E+02   -0.17516E-03   -0.46201E-04  7350   0.229E-01    0.405E-02
DAV:  20    -0.519676428733E+02   -0.40359E-03   -0.43943E-03 11445   0.726E-01    0.197E-02
DAV:  21    -0.519677031571E+02   -0.60284E-04   -0.17278E-04  7735   0.753E-02    0.248E-02
DAV:  22    -0.519676939902E+02    0.91668E-05   -0.29264E-05  6230   0.604E-02
   1 F= -.51967694E+02 E0= -.51967568E+02  d E =-.519677E+02
 curvature:   0.00 expect dE= 0.000E+00 dE for cont linesearch  0.000E+00
 trial: gam= 0.00000 g(F)=  0.128E-01 g(S)=  0.000E+00 ort = 0.000E+00 (trialstep = 0.100E+01)
 search vector abs. value=  0.128E-01
 bond charge predicted
       N       E                     dE             d eps       ncg     rms          rms(c)
DAV:   1    -0.519800762706E+02   -0.12373E-01   -0.65132E-01  6720   0.255E+00    0.608E-02
DAV:   2    -0.519804230176E+02   -0.34675E-03   -0.54657E-03 10920   0.971E-01    0.738E-02
DAV:   3    -0.519803220547E+02    0.10096E-03   -0.82450E-03 10115   0.130E+00    0.553E-02
DAV:   4    -0.519801746831E+02    0.14737E-03   -0.11167E-03  9065   0.508E-01    0.238E-02
DAV:   5    -0.519801700798E+02    0.46033E-05   -0.29560E-04 10115   0.176E-01    0.109E-02
DAV:   6    -0.519801744082E+02   -0.43284E-05   -0.82310E-05  7105   0.868E-02
   2 F= -.51980174E+02 E0= -.51980056E+02  d E =-.124804E-01
 ZBRENT: can't locate minimum, use default step
 trial-energy change:   -0.012480  1 .order   -0.012509   -0.012798   -0.012220
 step:   4.0000(harm= 22.1378)  dis= 0.01517  next Energy=   -52.109351 (dE=-0.142E+00)
 bond charge predicted
       N       E                     dE             d eps       ncg     rms          rms(c)
DAV:   1    -0.520129194036E+02   -0.32749E-01   -0.58687E+00  6720   0.765E+00    0.176E-01
DAV:   2    -0.520142085434E+02   -0.12891E-02   -0.21186E-02  8820   0.171E+00    0.162E-01
DAV:   3    -0.520140075780E+02    0.20097E-03   -0.67356E-03  7560   0.140E+00    0.849E-02
DAV:   4    -0.520145798860E+02   -0.57231E-03   -0.12479E-02  9205   0.163E+00    0.112E-01
DAV:   5    -0.520138327791E+02    0.74711E-03   -0.82545E-03 11690   0.128E+00    0.305E-02
DAV:   6    -0.520138275848E+02    0.51944E-05   -0.42547E-04  8925   0.255E-01    0.134E-02
DAV:   7    -0.520138303910E+02   -0.28062E-05   -0.94917E-05  7875   0.137E-01
   3 F= -.52013830E+02 E0= -.52013667E+02  d E =-.461364E-01
 curvature:  -2.92 expect dE=-0.238E-01 dE for cont linesearch -0.236E-01
 ZBRENT: increasing intervall
 opt :  10.0000  next Energy=   -52.062569 (dE=-0.949E-01)
 bond charge predicted
       N       E                     dE             d eps       ncg     rms          rms(c)
DAV:   1    -0.520584773009E+02   -0.44650E-01   -0.23582E+01  6720   0.154E+01    0.370E-01
DAV:   2    -0.520640362263E+02   -0.55589E-02   -0.94701E-02  8645   0.360E+00    0.342E-01
DAV:   3    -0.520625653437E+02    0.14709E-02   -0.23312E-02  8295   0.275E+00    0.156E-01
DAV:   4    -0.520624142075E+02    0.15114E-03   -0.53184E-03  8225   0.998E-01    0.110E-01
DAV:   5    -0.520629424401E+02   -0.52823E-03   -0.15797E-02  8015   0.191E+00    0.112E-01
DAV:   6    -0.520621437711E+02    0.79867E-03   -0.10374E-02 12285   0.146E+00    0.307E-02
DAV:   7    -0.520621302826E+02    0.13488E-04   -0.46923E-04  9345   0.303E-01    0.133E-02
DAV:   8    -0.520621316613E+02   -0.13787E-05   -0.93419E-05  7910   0.967E-02
   4 F= -.52062132E+02 E0= -.52062003E+02  d E =-.944377E-01
 curvature:  -6.03 expect dE=-0.182E-01 dE for cont linesearch -0.153E-01
 ZBRENT: increasing intervall
 opt :  22.0000  next Energy=   -52.076952 (dE=-0.109E+00)
 bond charge predicted
       N       E                     dE             d eps       ncg     rms          rms(c)
DAV:   1    -0.520492595497E+02    0.12871E-01   -0.96142E+01  6720   0.317E+01    0.813E-01
DAV:   2    -0.520770805371E+02   -0.27821E-01   -0.47583E-01  8855   0.819E+00    0.754E-01
DAV:   3    -0.520683077404E+02    0.87728E-02   -0.11223E-01  8435   0.646E+00    0.322E-01
DAV:   4    -0.520674985012E+02    0.80924E-03   -0.22405E-02  8085   0.185E+00    0.216E-01
DAV:   5    -0.520700253427E+02   -0.25268E-02   -0.60549E-02  8015   0.385E+00    0.265E-01
DAV:   6    -0.520666692662E+02    0.33561E-02   -0.46925E-02  8155   0.320E+00    0.940E-02
DAV:   7    -0.520665057817E+02    0.16348E-03   -0.43121E-03 10815   0.834E-01    0.430E-02
DAV:   8    -0.520664994620E+02    0.63197E-05   -0.72948E-04  7595   0.277E-01    0.169E-02
DAV:   9    -0.520665004324E+02   -0.97038E-06   -0.13254E-04  8120   0.105E-01    0.122E-02
DAV:  10    -0.520664996277E+02    0.80475E-06   -0.41304E-05  7245   0.926E-02
   5 F= -.52066500E+02 E0= -.52066374E+02  d E =-.988056E-01
 curvature:  -5.83 expect dE=-0.344E-01 dE for cont linesearch -0.133E-01
 ZBRENT: bracketing found
 ZBRENT: interpolating
 opt :  16.1626  next Energy=   -52.082267 (dE=-0.115E+00)
 bond charge predicted
       N       E                     dE             d eps       ncg     rms          rms(c)
DAV:   1    -0.520769089393E+02   -0.10409E-01   -0.22306E+01  6720   0.152E+01    0.309E-01
DAV:   2    -0.520817394689E+02   -0.48305E-02   -0.71277E-02  8085   0.252E+00    0.250E-01
DAV:   3    -0.520817747277E+02   -0.35259E-04   -0.17445E-02  8330   0.216E+00    0.177E-01
DAV:   4    -0.520834331641E+02   -0.16584E-02   -0.32819E-02  9905   0.270E+00    0.195E-01
DAV:   5    -0.520809718376E+02    0.24613E-02   -0.27618E-02  9030   0.243E+00    0.304E-02
DAV:   6    -0.520810025084E+02   -0.30671E-04   -0.13471E-03  9835   0.431E-01    0.234E-02
DAV:   7    -0.520809983943E+02    0.41140E-05   -0.22785E-04  8330   0.217E-01    0.110E-02
DAV:   8    -0.520809976471E+02    0.74727E-06   -0.56411E-05  7805   0.882E-02
   6 F= -.52080998E+02 E0= -.52080809E+02  d E =-.113304E+00
 curvature:  -6.91 expect dE=-0.111E-01 dE for cont linesearch -0.631E-04
 trial: gam= 0.09874 g(F)=  0.161E-02 g(S)=  0.000E+00 ort = 0.342E-03 (trialstep = 0.403E+01)
 search vector abs. value=  0.180E-02
 bond charge predicted
       N       E                     dE             d eps       ncg     rms          rms(c)
DAV:   1    -0.520864538076E+02   -0.54554E-02   -0.14725E+00  6720   0.394E+00    0.786E-02
DAV:   2    -0.520867932373E+02   -0.33943E-03   -0.52772E-03  7630   0.769E-01    0.750E-02
DAV:   3    -0.520867827019E+02    0.10535E-04   -0.16700E-03  8050   0.671E-01    0.494E-02
DAV:   4    -0.520868671175E+02   -0.84416E-04   -0.30577E-03  8470   0.829E-01    0.537E-02
DAV:   5    -0.520867056315E+02    0.16149E-03   -0.19894E-03 11235   0.610E-01    0.136E-02
DAV:   6    -0.520867011748E+02    0.44566E-05   -0.15286E-04  9555   0.125E-01    0.754E-03
DAV:   7    -0.520867019125E+02   -0.73764E-06   -0.24687E-05  6335   0.501E-02
   7 F= -.52086702E+02 E0= -.52086540E+02  d E =-.570427E-02
 trial-energy change:   -0.005704  1 .order   -0.005692   -0.006611   -0.004773
 step:  14.5092(harm= 14.5092)  dis= 0.02063  next Energy=   -52.092890 (dE=-0.119E-01)
 bond charge predicted
       N       E                     dE             d eps       ncg     rms          rms(c)
DAV:   1    -0.520918487466E+02   -0.51476E-02   -0.99564E+00  6720   0.103E+01    0.207E-01
DAV:   2    -0.520943016738E+02   -0.24529E-02   -0.37164E-02  8085   0.199E+00    0.198E-01
DAV:   3    -0.520940336928E+02    0.26798E-03   -0.81745E-03  8295   0.153E+00    0.117E-01
DAV:   4    -0.520950161333E+02   -0.98244E-03   -0.19775E-02  8505   0.214E+00    0.154E-01
DAV:   5    -0.520936941143E+02    0.13220E-02   -0.18166E-02 12215   0.188E+00    0.412E-02
DAV:   6    -0.520936247956E+02    0.69319E-04   -0.13631E-03 10885   0.396E-01    0.200E-02
DAV:   7    -0.520936275663E+02   -0.27707E-05   -0.15970E-04  7560   0.131E-01    0.103E-02
DAV:   8    -0.520936260383E+02    0.15280E-05   -0.22867E-05  6195   0.607E-02
   8 F= -.52093626E+02 E0= -.52093496E+02  d E =-.126284E-01
 curvature:  -7.96 expect dE=-0.242E-02 dE for cont linesearch -0.699E-04
 trial: gam= 0.13622 g(F)=  0.305E-03 g(S)=  0.000E+00 ort = 0.126E-03 (trialstep = 0.613E+01)
 search vector abs. value=  0.372E-03
 bond charge predicted
       N       E                     dE             d eps       ncg     rms          rms(c)
DAV:   1    -0.520953089464E+02   -0.16814E-02   -0.70297E-01  6720   0.268E+00    0.580E-02
DAV:   2    -0.520954372078E+02   -0.12826E-03   -0.23629E-03  8435   0.588E-01    0.549E-02
DAV:   3    -0.520954214622E+02    0.15746E-04   -0.10641E-03  7980   0.508E-01    0.330E-02
DAV:   4    -0.520954333524E+02   -0.11890E-04   -0.12796E-03  9485   0.522E-01    0.325E-02
DAV:   5    -0.520953804469E+02    0.52905E-04   -0.41959E-04  7910   0.310E-01    0.851E-03
DAV:   6    -0.520953836063E+02   -0.31594E-05   -0.49264E-05  7105   0.788E-02
   9 F= -.52095384E+02 E0= -.52095259E+02  d E =-.175757E-02
 trial-energy change:   -0.001758  1 .order   -0.001710   -0.001972   -0.001448
 step:  13.7399(harm= 23.0630)  dis= 0.00824  next Energy=   -52.096374 (dE=-0.275E-02)
 bond charge predicted
       N       E                     dE             d eps       ncg     rms          rms(c)
DAV:   1    -0.520967541772E+02   -0.13737E-02   -0.10846E+00  6720   0.334E+00    0.717E-02
DAV:   2    -0.520969527646E+02   -0.19859E-03   -0.36502E-03  7875   0.742E-01    0.693E-02
DAV:   3    -0.520969042939E+02    0.48471E-04   -0.10818E-03  8015   0.528E-01    0.346E-02
DAV:   4    -0.520970156452E+02   -0.11135E-03   -0.21459E-03  9940   0.669E-01    0.484E-02
DAV:   5    -0.520968704181E+02    0.14523E-03   -0.14464E-03  8225   0.568E-01    0.138E-02
DAV:   6    -0.520968726676E+02   -0.22495E-05   -0.93209E-05  8190   0.124E-01
  10 F= -.52096873E+02 E0= -.52096751E+02  d E =-.324663E-02
 curvature:  -9.30 expect dE=-0.958E-03 dE for cont linesearch -0.513E-03
 ZBRENT: increasing intervall
 opt :  28.9641  next Energy=   -52.097638 (dE=-0.401E-02)
 bond charge predicted
       N       E                     dE             d eps       ncg     rms          rms(c)
DAV:   1    -0.520974456010E+02   -0.57518E-03   -0.43429E+00  6720   0.668E+00    0.147E-01
DAV:   2    -0.520982817211E+02   -0.83612E-03   -0.15560E-02  8015   0.156E+00    0.145E-01
DAV:   3    -0.520980596736E+02    0.22205E-03   -0.49028E-03  8260   0.114E+00    0.723E-02
DAV:   4    -0.520984378798E+02   -0.37821E-03   -0.88004E-03 10115   0.136E+00    0.958E-02
DAV:   5    -0.520978921432E+02    0.54574E-03   -0.49742E-03  9240   0.106E+00    0.287E-02
DAV:   6    -0.520978969769E+02   -0.48337E-05   -0.36182E-04  9275   0.249E-01    0.154E-02
DAV:   7    -0.520978943438E+02    0.26331E-05   -0.71393E-05  8120   0.114E-01
  11 F= -.52097894E+02 E0= -.52097752E+02  d E =-.426831E-02
 curvature: -13.88 expect dE=-0.354E-02 dE for cont linesearch -0.157E-04
 trial: gam= 1.02988 g(F)=  0.255E-03 g(S)=  0.000E+00 ort =-0.205E-04 (trialstep = 0.655E+01)
 search vector abs. value=  0.608E-03
 bond charge predicted
       N       E                     dE             d eps       ncg     rms          rms(c)
DAV:   1    -0.520991132068E+02   -0.12162E-02   -0.13049E+00  6720   0.372E+00    0.762E-02
DAV:   2    -0.520993477637E+02   -0.23456E-03   -0.42397E-03  8155   0.814E-01    0.784E-02
DAV:   3    -0.520992782842E+02    0.69479E-04   -0.10212E-03  7840   0.552E-01    0.392E-02
DAV:   4    -0.520993447090E+02   -0.66425E-04   -0.13941E-03 11270   0.520E-01    0.414E-02
DAV:   5    -0.520992588291E+02    0.85880E-04   -0.19999E-03  8015   0.656E-01    0.247E-02
DAV:   6    -0.520992372554E+02    0.21574E-04   -0.28578E-04  8540   0.253E-01    0.800E-03
DAV:   7    -0.520992386580E+02   -0.14026E-05   -0.35767E-05  7140   0.550E-02
  12 F= -.52099239E+02 E0= -.52099070E+02  d E =-.134431E-02
 trial-energy change:   -0.001344  1 .order   -0.001249   -0.001533   -0.000965
 step:  10.7453(harm= 17.6665)  dis= 0.00746  next Energy=   -52.099572 (dE=-0.168E-02)
 bond charge predicted
       N       E                     dE             d eps       ncg     rms          rms(c)
DAV:   1    -0.520997333050E+02   -0.49605E-03   -0.53462E-01  6720   0.238E+00    0.488E-02
DAV:   2    -0.520998277945E+02   -0.94489E-04   -0.17195E-03  8470   0.520E-01    0.500E-02
DAV:   3    -0.520998018950E+02    0.25900E-04   -0.47973E-04  8260   0.369E-01    0.261E-02
DAV:   4    -0.520998687021E+02   -0.66807E-04   -0.11361E-03  8575   0.490E-01    0.368E-02
DAV:   5    -0.520997849247E+02    0.83777E-04   -0.10094E-03  7140   0.468E-01    0.118E-02
DAV:   6    -0.520997843255E+02    0.59916E-06   -0.65020E-05  7420   0.109E-01
  13 F= -.52099784E+02 E0= -.52099619E+02  d E =-.188998E-02
 curvature: -14.04 expect dE=-0.115E-02 dE for cont linesearch -0.192E-03
 ZBRENT: increasing intervall
 opt :  19.1331  next Energy=   -52.100077 (dE=-0.218E-02)
 bond charge predicted
       N       E                     dE             d eps       ncg     rms          rms(c)
DAV:   1    -0.520999137964E+02   -0.12887E-03   -0.21391E+00  6720   0.477E+00    0.976E-02
DAV:   2    -0.521002927130E+02   -0.37892E-03   -0.70582E-03  8470   0.104E+00    0.101E-01
DAV:   3    -0.521001766291E+02    0.11608E-03   -0.16316E-03  8330   0.698E-01    0.501E-02
DAV:   4    -0.521002699445E+02   -0.93315E-04   -0.21472E-03 11585   0.641E-01    0.514E-02
DAV:   5    -0.521001429355E+02    0.12701E-03   -0.32119E-03  9380   0.830E-01    0.320E-02
DAV:   6    -0.521001041008E+02    0.38835E-04   -0.48998E-04  9940   0.331E-01    0.105E-02
DAV:   7    -0.521001057478E+02   -0.16469E-05   -0.52551E-05  7840   0.686E-02
  14 F= -.52100106E+02 E0= -.52099991E+02  d E =-.221140E-02
 curvature: -21.46 expect dE=-0.201E-02 dE for cont linesearch -0.686E-04
 trial: gam= 0.35059 g(F)=  0.935E-04 g(S)=  0.000E+00 ort =-0.441E-04 (trialstep = 0.907E+01)
 search vector abs. value=  0.137E-03
 bond charge predicted
       N       E                     dE             d eps       ncg     rms          rms(c)
DAV:   1    -0.521006499079E+02   -0.54581E-03   -0.56906E-01  6720   0.244E+00    0.521E-02
DAV:   2    -0.521007449007E+02   -0.94993E-04   -0.16820E-03  8050   0.521E-01    0.526E-02
DAV:   3    -0.521007217210E+02    0.23180E-04   -0.51759E-04  8295   0.395E-01    0.265E-02
DAV:   4    -0.521007481573E+02   -0.26436E-04   -0.53871E-04  8190   0.352E-01    0.287E-02
DAV:   5    -0.521007213389E+02    0.26818E-04   -0.91097E-04  7455   0.443E-01    0.146E-02
DAV:   6    -0.521007084886E+02    0.12850E-04   -0.13366E-04  5880   0.165E-01    0.470E-03
DAV:   7    -0.521007105518E+02   -0.20632E-05   -0.27481E-05  7000   0.357E-02
  15 F= -.52100711E+02 E0= -.52100637E+02  d E =-.604804E-03
 trial-energy change:   -0.000605  1 .order   -0.000549   -0.000708   -0.000390
 step:  13.4190(harm= 20.2230)  dis= 0.00727  next Energy=   -52.100810 (dE=-0.705E-03)
 bond charge predicted
       N       E                     dE             d eps       ncg     rms          rms(c)
DAV:   1    -0.521008632060E+02   -0.15472E-03   -0.13101E-01  6720   0.117E+00    0.242E-02
DAV:   2    -0.521008880571E+02   -0.24851E-04   -0.38083E-04  7490   0.248E-01    0.246E-02
DAV:   3    -0.521008837582E+02    0.42990E-05   -0.11635E-04  8400   0.186E-01    0.123E-02
DAV:   4    -0.521008924252E+02   -0.86671E-05   -0.13561E-04  5530   0.177E-01    0.142E-02
DAV:   5    -0.521008847748E+02    0.76505E-05   -0.20115E-04  5495   0.209E-01    0.637E-03
DAV:   6    -0.521008831309E+02    0.16439E-05   -0.24380E-05  5740   0.714E-02
  16 F= -.52100883E+02 E0= -.52100826E+02  d E =-.777383E-03
 curvature: -11.17 expect dE=-0.385E-03 dE for cont linesearch -0.661E-04
 trial: gam=-0.13422 g(F)=  0.344E-04 g(S)=  0.000E+00 ort = 0.285E-04 (trialstep = 0.994E+01)
 search vector abs. value=  0.293E-04
 bond charge predicted
       N       E                     dE             d eps       ncg     rms          rms(c)
DAV:   1    -0.521011002874E+02   -0.21551E-03   -0.14510E-01  6720   0.124E+00    0.251E-02
DAV:   2    -0.521011291684E+02   -0.28881E-04   -0.47879E-04  7875   0.232E-01    0.233E-02
DAV:   3    -0.521011267170E+02    0.24514E-05   -0.13049E-04  8365   0.194E-01    0.146E-02
DAV:   4    -0.521011382556E+02   -0.11539E-04   -0.28401E-04  6020   0.262E-01    0.183E-02
DAV:   5    -0.521011214883E+02    0.16767E-04   -0.29832E-04  4935   0.239E-01    0.435E-03
DAV:   6    -0.521011189661E+02    0.25222E-05   -0.32871E-05  4830   0.651E-02
  17 F= -.52101119E+02 E0= -.52101059E+02  d E =-.235835E-03
 trial-energy change:   -0.000236  1 .order   -0.000226   -0.000304   -0.000148
 step:  19.3377(harm= 19.3377)  dis= 0.00493  next Energy=   -52.101179 (dE=-0.296E-03)
 bond charge predicted
       N       E                     dE             d eps       ncg     rms          rms(c)
DAV:   1    -0.521011820664E+02   -0.60578E-04   -0.12989E-01  6720   0.118E+00    0.234E-02
DAV:   2    -0.521012100179E+02   -0.27951E-04   -0.43951E-04  6930   0.229E-01    0.220E-02
DAV:   3    -0.521012063203E+02    0.36976E-05   -0.87774E-05  7875   0.160E-01
  18 F= -.52101206E+02 E0= -.52101144E+02  d E =-.323189E-03
 curvature:  -9.24 expect dE=-0.115E-03 dE for cont linesearch -0.134E-05
 trial: gam= 0.22244 g(F)=  0.124E-04 g(S)=  0.000E+00 ort = 0.206E-05 (trialstep = 0.118E+02)
 search vector abs. value=  0.148E-04
 bond charge predicted
       N       E                     dE             d eps       ncg     rms          rms(c)
DAV:   1    -0.521012882255E+02   -0.78208E-04   -0.10460E-01  6720   0.107E+00    0.272E-02
DAV:   2    -0.521013908855E+02   -0.10266E-03   -0.14985E-03  8120   0.594E-01    0.420E-02
DAV:   3    -0.521013085512E+02    0.82334E-04   -0.16023E-03  9170   0.586E-01    0.176E-02
DAV:   4    -0.521012997688E+02    0.87824E-05   -0.15996E-04  7070   0.174E-01    0.103E-02
DAV:   5    -0.521012998554E+02   -0.86620E-07   -0.30316E-05  7175   0.645E-02
  19 F= -.52101300E+02 E0= -.52101243E+02  d E =-.935351E-04
 trial-energy change:   -0.000094  1 .order   -0.000093   -0.000152   -0.000034
 step:  15.2708(harm= 15.2708)  dis= 0.00202  next Energy=   -52.101305 (dE=-0.984E-04)
 bond charge predicted
       N       E                     dE             d eps       ncg     rms          rms(c)
DAV:   1    -0.521013030094E+02   -0.32406E-05   -0.89314E-03  6860   0.314E-01    0.734E-03
DAV:   2    -0.521013057925E+02   -0.27831E-05   -0.39771E-05  7980   0.925E-02
  20 F= -.52101306E+02 E0= -.52101251E+02  d E =-.994721E-04
 curvature:  -8.77 expect dE=-0.265E-04 dE for cont linesearch -0.518E-06
 trial: gam= 0.35413 g(F)=  0.302E-05 g(S)=  0.000E+00 ort =-0.935E-06 (trialstep = 0.125E+02)
 search vector abs. value=  0.422E-05
 reached required accuracy - stopping structural energy minimisation
 writing wavefunctions
