 vasp.5.4.1 05Feb16 (build Nov 22 2018 20:17:51) complex                        
  
 POSCAR found type information on POSCAR  Pd
 04/POSCAR found :  1 types and      33 ions
 scaLAPACK will be used

 ----------------------------------------------------------------------------- 
|                                                                             |
|           W    W    AA    RRRRR   N    N  II  N    N   GGGG   !!!           |
|           W    W   A  A   R    R  NN   N  II  NN   N  G    G  !!!           |
|           W    W  A    A  R    R  N N  N  II  N N  N  G       !!!           |
|           W WW W  AAAAAA  RRRRR   N  N N  II  N  N N  G  GGG   !            |
|           WW  WW  A    A  R   R   N   NN  II  N   NN  G    G                |
|           W    W  A    A  R    R  N    N  II  N    N   GGGG   !!!           |
|                                                                             |
|      For optimal performance we recommend to set                            |
|        NCORE= 4 - approx SQRT( number of cores)                             |
|      NCORE specifies how many cores store one orbital (NPAR=cpu/NCORE).     |
|      This setting can  greatly improve the performance of VASP for DFT.     |
|      The default, NPAR=number of cores might be grossly inefficient         |
|      on modern multi-core architectures or massively parallel machines.     |
|      Do your own testing !!!!                                               |
|      Unfortunately you need to use the default for GW and RPA calculations. |
|      (for HF NCORE is supported but not extensively tested yet)             |
|                                                                             |
 ----------------------------------------------------------------------------- 

 LDA part: xc-table for Ceperly-Alder, standard interpolation
 POSCAR found type information on POSCAR  Pd
 00/POSCAR found :  1 types and      33 ions
 POSCAR found type information on POSCAR  Pd
 06/POSCAR found :  1 types and      33 ions
 Jacobian:    20.4934437754924     
 POSCAR, INCAR and KPOINTS ok, starting setup
 WARNING: small aliasing (wrap around) errors must be expected
 FFT: planning ...
 WAVECAR not read
 entering main loop
       N       E                     dE             d eps       ncg     rms          rms(c)
DAV:   1     0.285285403557E+04    0.28529E+04   -0.13720E+05 10000   0.138E+03
DAV:   2     0.744163068708E+02   -0.27784E+04   -0.25972E+04 10232   0.415E+02
DAV:   3    -0.152568419919E+03   -0.22698E+03   -0.20414E+03 11632   0.112E+02
DAV:   4    -0.164767919680E+03   -0.12199E+02   -0.11284E+02 11768   0.276E+01
DAV:   5    -0.165047204615E+03   -0.27928E+00   -0.27857E+00 12168   0.375E+00    0.161E+01
RMM:   6    -0.176058298321E+03   -0.11011E+02   -0.33639E+01 10001   0.164E+01    0.254E+01
RMM:   7    -0.173735787741E+03    0.23225E+01   -0.12908E+01 10028   0.831E+00    0.265E+01
RMM:   8    -0.162574570683E+03    0.11161E+02   -0.10034E+01 10027   0.848E+00    0.175E+01
RMM:   9    -0.158363521732E+03    0.42110E+01   -0.38557E+00 10021   0.573E+00    0.675E+00
RMM:  10    -0.157824753717E+03    0.53877E+00   -0.87834E-01 10022   0.253E+00    0.399E+00
RMM:  11    -0.157844829212E+03   -0.20075E-01   -0.32977E-01 10025   0.154E+00    0.460E+00
RMM:  12    -0.157679054178E+03    0.16578E+00   -0.19526E-01 10020   0.126E+00    0.285E+00
RMM:  13    -0.157680002442E+03   -0.94826E-03   -0.19378E-01 10022   0.114E+00    0.319E+00
RMM:  14    -0.157609472566E+03    0.70530E-01   -0.11509E-01 10021   0.948E-01    0.229E+00
RMM:  15    -0.157560734600E+03    0.48738E-01   -0.55136E-02 10021   0.688E-01    0.115E+00
RMM:  16    -0.157559327602E+03    0.14070E-02   -0.33239E-02 10023   0.449E-01    0.170E+00
RMM:  17    -0.157542281444E+03    0.17046E-01   -0.12059E-02 10022   0.302E-01    0.971E-01
RMM:  18    -0.157533023432E+03    0.92580E-02   -0.56594E-03 10017   0.197E-01    0.457E-01
RMM:  19    -0.157528875521E+03    0.41479E-02   -0.52798E-03 10020   0.172E-01    0.372E-01
RMM:  20    -0.157526954433E+03    0.19211E-02   -0.21699E-03 10014   0.125E-01    0.427E-01
RMM:  21    -0.157559611318E+03   -0.32657E-01   -0.74591E-03 10031   0.150E-01    0.176E+00
RMM:  22    -0.157524372637E+03    0.35239E-01   -0.33596E-03 10024   0.125E-01    0.376E-01
RMM:  23    -0.157525509302E+03   -0.11367E-02   -0.54580E-03 10030   0.129E-01    0.885E-01
RMM:  24    -0.157516816981E+03    0.86923E-02   -0.24250E-03 10024   0.988E-02    0.320E-01
RMM:  25    -0.157516020200E+03    0.79678E-03   -0.95778E-04 10093   0.629E-02    0.405E-01
RMM:  26    -0.157513506620E+03    0.25136E-02   -0.54986E-04 10000   0.444E-02    0.118E-01
RMM:  27    -0.157514046406E+03   -0.53979E-03   -0.55195E-04 10011   0.418E-02    0.277E-01
RMM:  28    -0.157522255705E+03   -0.82093E-02   -0.10888E-03 10009   0.559E-02    0.791E-01
RMM:  29    -0.157521181092E+03    0.10746E-02   -0.10808E-04  8883   0.263E-02    0.677E-01
RMM:  30    -0.157518360676E+03    0.28204E-02   -0.22127E-04  9959   0.268E-02    0.339E-01
RMM:  31    -0.157519969359E+03   -0.16087E-02   -0.16865E-04  8203   0.222E-02    0.393E-01
RMM:  32    -0.157519812085E+03    0.15727E-03   -0.83311E-05  7730   0.135E-02    0.312E-01
RMM:  33    -0.157519323815E+03    0.48827E-03   -0.65807E-05  8349   0.138E-02    0.181E-01
RMM:  34    -0.157519291296E+03    0.32519E-04   -0.15910E-04  9821   0.193E-02    0.516E-02
RMM:  35    -0.157519480891E+03   -0.18960E-03   -0.49511E-05  7004   0.143E-02    0.185E-02
RMM:  36    -0.157519625641E+03   -0.14475E-03   -0.45407E-05  7030   0.964E-03    0.319E-02
RMM:  37    -0.157519703869E+03   -0.78228E-04   -0.21893E-05  6240   0.808E-03    0.569E-02
RMM:  38    -0.157519717505E+03   -0.13636E-04   -0.98096E-06  5782   0.620E-03    0.565E-02
RMM:  39    -0.157519691864E+03    0.25641E-04   -0.47966E-06  5607   0.446E-03    0.273E-02
RMM:  40    -0.157519725316E+03   -0.33453E-04   -0.33111E-06  5501   0.408E-03    0.598E-02
RMM:  41    -0.157519710030E+03    0.15287E-04   -0.10342E-06  4790   0.291E-03    0.435E-02
RMM:  42    -0.157519770007E+03   -0.59978E-04   -0.29396E-05  6520   0.822E-03    0.850E-02
RMM:  43    -0.157519702141E+03    0.67866E-04   -0.15660E-05  5614   0.849E-03    0.289E-02
RMM:  44    -0.157519702514E+03   -0.37319E-06   -0.25372E-06  5435   0.552E-03
   1 F= -.15751970E+03 E0= -.15751662E+03  d E =-.157520E+03
quench:  g(F)=  0.000E+00 g(S)=  0.000E+00 dE (1.order)= 0.000E+00
 bond charge predicted
       N       E                     dE             d eps       ncg     rms          rms(c)
DAV:   1    -0.158013889698E+03   -0.49419E+00   -0.48214E+01 10288   0.137E+01    0.172E+00
RMM:   2    -0.159323012828E+03   -0.13091E+01   -0.16080E+00 10036   0.277E+00    0.123E+01
RMM:   3    -0.158278967380E+03    0.10440E+01   -0.45365E-01 10134   0.154E+00    0.344E+00
RMM:   4    -0.158228646657E+03    0.50321E-01   -0.14588E-01 10063   0.979E-01    0.285E+00
RMM:   5    -0.158139472737E+03    0.89174E-01   -0.31827E-02 10029   0.471E-01    0.890E-01
RMM:   6    -0.158133903330E+03    0.55694E-02   -0.74094E-03 10029   0.240E-01    0.777E-01
RMM:   7    -0.158130797236E+03    0.31061E-02   -0.51228E-03 10036   0.186E-01    0.625E-01
RMM:   8    -0.158127398170E+03    0.33991E-02   -0.66107E-03 10072   0.188E-01    0.451E-01
RMM:   9    -0.158125775431E+03    0.16227E-02   -0.49643E-03 10130   0.159E-01    0.273E-01
RMM:  10    -0.158125369994E+03    0.40544E-03   -0.32115E-03 10329   0.124E-01    0.198E-01
RMM:  11    -0.158125159294E+03    0.21070E-03   -0.11774E-03 10323   0.739E-02    0.140E-01
RMM:  12    -0.158125032583E+03    0.12671E-03   -0.26710E-04 10013   0.401E-02    0.897E-02
RMM:  13    -0.158124988946E+03    0.43637E-04   -0.10796E-04  9972   0.276E-02    0.803E-02
RMM:  14    -0.158124928613E+03    0.60333E-04   -0.12148E-04  9907   0.256E-02    0.401E-02
RMM:  15    -0.158124917000E+03    0.11613E-04   -0.40892E-05  6803   0.155E-02    0.264E-02
RMM:  16    -0.158124916937E+03    0.63927E-07   -0.19342E-05  5554   0.139E-02
   2 F= -.15812492E+03 E0= -.15812184E+03  d E =-.605214E+00
quench:  g(F)=  0.000E+00 g(S)=  0.000E+00 dE (1.order)= 0.000E+00
 bond charge predicted
       N       E                     dE             d eps       ncg     rms          rms(c)
DAV:   1    -0.158276621163E+03   -0.15170E+00   -0.11268E+02 10000   0.219E+01    0.217E+00
RMM:   2    -0.159385535208E+03   -0.11089E+01   -0.39562E+00 10046   0.472E+00    0.101E+01
RMM:   3    -0.158848041914E+03    0.53749E+00   -0.95134E-01 11750   0.215E+00    0.453E+00
RMM:   4    -0.158825636077E+03    0.22406E-01   -0.21438E-01 10037   0.121E+00    0.407E+00
RMM:   5    -0.158635914455E+03    0.18972E+00   -0.61977E-02 10032   0.678E-01    0.135E+00
RMM:   6    -0.158626539833E+03    0.93746E-02   -0.15785E-02 10030   0.330E-01    0.132E+00
RMM:   7    -0.158616479532E+03    0.10060E-01   -0.10616E-02 10047   0.250E-01    0.976E-01
RMM:   8    -0.158606516218E+03    0.99633E-02   -0.15725E-02 10244   0.267E-01    0.616E-01
RMM:   9    -0.158602791492E+03    0.37247E-02   -0.12836E-02 10562   0.237E-01    0.392E-01
RMM:  10    -0.158602086644E+03    0.70485E-03   -0.11128E-02 10998   0.215E-01    0.307E-01
RMM:  11    -0.158601512111E+03    0.57453E-03   -0.37757E-03 11124   0.129E-01    0.166E-01
RMM:  12    -0.158601404067E+03    0.10804E-03   -0.60962E-04 10052   0.628E-02    0.143E-01
RMM:  13    -0.158601169578E+03    0.23449E-03   -0.26344E-04 10003   0.423E-02    0.895E-02
RMM:  14    -0.158601091397E+03    0.78182E-04   -0.16860E-04  9995   0.319E-02    0.590E-02
RMM:  15    -0.158601072653E+03    0.18743E-04   -0.16761E-04 10418   0.259E-02    0.373E-02
RMM:  16    -0.158601075062E+03   -0.24086E-05   -0.66424E-05  8638   0.168E-02
   3 F= -.15860108E+03 E0= -.15859827E+03  d E =-.476158E+00
quench:  g(F)=  0.000E+00 g(S)=  0.000E+00 dE (1.order)= 0.000E+00
 bond charge predicted
       N       E                     dE             d eps       ncg     rms          rms(c)
DAV:   1    -0.158535664482E+03    0.65408E-01   -0.11211E+02 10000   0.222E+01    0.198E+00
RMM:   2    -0.159166838561E+03   -0.63117E+00   -0.39486E+00 10042   0.501E+00    0.650E+00
RMM:   3    -0.159194757980E+03   -0.27919E-01   -0.94969E-01 13844   0.190E+00    0.559E+00
RMM:   4    -0.159020953846E+03    0.17380E+00   -0.16971E-01 10040   0.112E+00    0.337E+00
RMM:   5    -0.158883286107E+03    0.13767E+00   -0.51421E-02 10031   0.629E-01    0.124E+00
RMM:   6    -0.158873840148E+03    0.94460E-02   -0.13899E-02 10033   0.297E-01    0.113E+00
RMM:   7    -0.158866762320E+03    0.70778E-02   -0.93852E-03 10230   0.213E-01    0.921E-01
RMM:   8    -0.158858466999E+03    0.82953E-02   -0.14185E-02 10356   0.249E-01    0.621E-01
RMM:   9    -0.158853842110E+03    0.46249E-02   -0.14796E-02 10927   0.243E-01    0.347E-01
RMM:  10    -0.158853470639E+03    0.37147E-03   -0.14137E-02 11633   0.233E-01    0.321E-01
RMM:  11    -0.158852968250E+03    0.50239E-03   -0.41654E-03 11324   0.138E-01    0.180E-01
RMM:  12    -0.158852805150E+03    0.16310E-03   -0.60128E-04 10037   0.635E-02    0.173E-01
RMM:  13    -0.158852433812E+03    0.37134E-03   -0.29189E-04 10010   0.447E-02    0.105E-01
RMM:  14    -0.158852308762E+03    0.12505E-03   -0.22908E-04 10039   0.334E-02    0.768E-02
RMM:  15    -0.158852236941E+03    0.71821E-04   -0.39801E-04 10921   0.370E-02    0.350E-02
RMM:  16    -0.158852239043E+03   -0.21018E-05   -0.93099E-05  9741   0.206E-02
   4 F= -.15885224E+03 E0= -.15884938E+03  d E =-.251164E+00
quench:  g(F)=  0.000E+00 g(S)=  0.000E+00 dE (1.order)= 0.000E+00
 bond charge predicted
       N       E                     dE             d eps       ncg     rms          rms(c)
DAV:   1    -0.158683016294E+03    0.16922E+00   -0.99697E+01 10000   0.210E+01    0.171E+00
RMM:   2    -0.159280426609E+03   -0.59741E+00   -0.32878E+00 10044   0.439E+00    0.624E+00
RMM:   3    -0.159166277535E+03    0.11415E+00   -0.71779E-01 13907   0.173E+00    0.440E+00
RMM:   4    -0.159063860331E+03    0.10242E+00   -0.11768E-01 10033   0.942E-01    0.273E+00
RMM:   5    -0.158978103736E+03    0.85757E-01   -0.32534E-02 10033   0.515E-01    0.112E+00
RMM:   6    -0.158970477664E+03    0.76261E-02   -0.83698E-03 10036   0.231E-01    0.979E-01
RMM:   7    -0.158964529479E+03    0.59482E-02   -0.77230E-03 10233   0.191E-01    0.801E-01
RMM:   8    -0.158956596071E+03    0.79334E-02   -0.14942E-02 10465   0.248E-01    0.504E-01
RMM:   9    -0.158953513915E+03    0.30822E-02   -0.16553E-02 11447   0.254E-01    0.318E-01
RMM:  10    -0.158953399459E+03    0.11446E-03   -0.12113E-02 11801   0.219E-01    0.261E-01
RMM:  11    -0.158953018672E+03    0.38079E-03   -0.20835E-03 11694   0.102E-01    0.167E-01
RMM:  12    -0.158952789250E+03    0.22942E-03   -0.28577E-04 10020   0.451E-02    0.150E-01
RMM:  13    -0.158952449664E+03    0.33959E-03   -0.42201E-04 10014   0.457E-02    0.852E-02
RMM:  14    -0.158952373285E+03    0.76380E-04   -0.29941E-04 11536   0.345E-02    0.539E-02
RMM:  15    -0.158952356172E+03    0.17112E-04   -0.24586E-04 11260   0.297E-02    0.282E-02
RMM:  16    -0.158952361227E+03   -0.50551E-05   -0.41127E-05  7242   0.152E-02
   5 F= -.15895236E+03 E0= -.15894969E+03  d E =-.100122E+00
quench:  g(F)=  0.000E+00 g(S)=  0.000E+00 dE (1.order)= 0.000E+00
 bond charge predicted
       N       E                     dE             d eps       ncg     rms          rms(c)
DAV:   1    -0.158871531739E+03    0.80824E-01   -0.40695E+01 10032   0.134E+01    0.955E-01
RMM:   2    -0.159020349682E+03   -0.14882E+00   -0.12776E+00 10045   0.267E+00    0.220E+00
RMM:   3    -0.159084286621E+03   -0.63937E-01   -0.22916E-01 14021   0.968E-01    0.324E+00
RMM:   4    -0.159013071194E+03    0.71215E-01   -0.36807E-02 10039   0.510E-01    0.161E+00
RMM:   5    -0.158985414334E+03    0.27657E-01   -0.10807E-02 10031   0.300E-01    0.628E-01
RMM:   6    -0.158982631819E+03    0.27825E-02   -0.24713E-03 10039   0.125E-01    0.540E-01
RMM:   7    -0.158979876139E+03    0.27557E-02   -0.32286E-03 11112   0.111E-01    0.420E-01
RMM:   8    -0.158976865211E+03    0.30109E-02   -0.78507E-03 10314   0.175E-01    0.296E-01
RMM:   9    -0.158976479770E+03    0.38544E-03   -0.13315E-02 12401   0.219E-01    0.235E-01
RMM:  10    -0.158976476387E+03    0.33823E-05   -0.29224E-03 11550   0.115E-01    0.161E-01
RMM:  11    -0.158976235480E+03    0.24091E-03   -0.25345E-04 10023   0.430E-02    0.143E-01
RMM:  12    -0.158975895709E+03    0.33977E-03   -0.33297E-04 10029   0.393E-02    0.899E-02
RMM:  13    -0.158975779586E+03    0.11612E-03   -0.29222E-04 12038   0.325E-02    0.526E-02
RMM:  14    -0.158975744173E+03    0.35413E-04   -0.13488E-04 10297   0.232E-02    0.348E-02
RMM:  15    -0.158975731703E+03    0.12470E-04   -0.11689E-04 10075   0.206E-02    0.148E-02
RMM:  16    -0.158975732694E+03   -0.99043E-06   -0.20737E-05  5518   0.113E-02
   6 F= -.15897573E+03 E0= -.15897315E+03  d E =-.233715E-01
quench:  g(F)=  0.000E+00 g(S)=  0.000E+00 dE (1.order)= 0.000E+00
 bond charge predicted
       N       E                     dE             d eps       ncg     rms          rms(c)
DAV:   1    -0.158976211371E+03   -0.47967E-03   -0.51547E-02 10392   0.473E-01    0.374E-02
RMM:   2    -0.158976688904E+03   -0.47753E-03   -0.17165E-03 10037   0.902E-02    0.189E-01
RMM:   3    -0.158976416103E+03    0.27280E-03   -0.27836E-04 12632   0.322E-02    0.754E-02
RMM:   4    -0.158976370695E+03    0.45408E-04   -0.52722E-05  8273   0.208E-02    0.467E-02
RMM:   5    -0.158976347314E+03    0.23381E-04   -0.10938E-05  5400   0.117E-02    0.198E-02
RMM:   6    -0.158976344859E+03    0.24556E-05   -0.30594E-06  5157   0.573E-03
   7 F= -.15897634E+03 E0= -.15897377E+03  d E =-.612165E-03
quench:  g(F)=  0.000E+00 g(S)=  0.000E+00 dE (1.order)= 0.000E+00
 bond charge predicted
       N       E                     dE             d eps       ncg     rms          rms(c)
DAV:   1    -0.158976710236E+03   -0.36292E-03   -0.18313E-01 10120   0.891E-01    0.603E-02
RMM:   2    -0.158977629475E+03   -0.91924E-03   -0.55348E-03 10045   0.162E-01    0.218E-01
RMM:   3    -0.158977536001E+03    0.93474E-04   -0.86996E-04 13744   0.560E-02    0.183E-01
RMM:   4    -0.158977264861E+03    0.27114E-03   -0.16326E-04  9994   0.345E-02    0.832E-02
RMM:   5    -0.158977180404E+03    0.84456E-04   -0.25280E-05  5784   0.149E-02    0.390E-02
RMM:   6    -0.158977170978E+03    0.94264E-05   -0.12037E-05  5149   0.108E-02
   8 F= -.15897717E+03 E0= -.15897460E+03  d E =-.826119E-03
quench:  g(F)=  0.000E+00 g(S)=  0.000E+00 dE (1.order)= 0.000E+00
 bond charge predicted
       N       E                     dE             d eps       ncg     rms          rms(c)
DAV:   1    -0.158977289900E+03   -0.10950E-03   -0.36125E-01 10080   0.125E+00    0.884E-02
RMM:   2    -0.158978508347E+03   -0.12184E-02   -0.10759E-02 10048   0.223E-01    0.184E-01
RMM:   3    -0.158979273097E+03   -0.76475E-03   -0.16984E-03 13336   0.797E-02    0.329E-01
RMM:   4    -0.158978434813E+03    0.83828E-03   -0.32095E-04 10026   0.447E-02    0.137E-01
RMM:   5    -0.158978204117E+03    0.23070E-03   -0.79019E-05  9872   0.243E-02    0.538E-02
RMM:   6    -0.158978185570E+03    0.18547E-04   -0.16182E-05  5407   0.107E-02    0.504E-02
RMM:   7    -0.158978152631E+03    0.32939E-04   -0.82883E-05  9253   0.195E-02    0.413E-02
RMM:   8    -0.158978134824E+03    0.17807E-04   -0.11554E-04 10150   0.213E-02    0.286E-02
RMM:   9    -0.158978135770E+03   -0.94537E-06   -0.65961E-05  8895   0.169E-02
   9 F= -.15897814E+03 E0= -.15897557E+03  d E =-.964791E-03
quench:  g(F)=  0.000E+00 g(S)=  0.000E+00 dE (1.order)= 0.000E+00
 bond charge predicted
       N       E                     dE             d eps       ncg     rms          rms(c)
DAV:   1    -0.158977877605E+03    0.25722E-03   -0.53406E-01 10016   0.152E+00    0.126E-01
RMM:   2    -0.158981739923E+03   -0.38623E-02   -0.17977E-02 10050   0.283E-01    0.506E-01
RMM:   3    -0.158980220276E+03    0.15196E-02   -0.28299E-03 13166   0.102E-01    0.296E-01
RMM:   4    -0.158979621932E+03    0.59834E-03   -0.70003E-04 10016   0.721E-02    0.176E-01
RMM:   5    -0.158979286161E+03    0.33577E-03   -0.15235E-04 10000   0.359E-02    0.697E-02
RMM:   6    -0.158979244775E+03    0.41386E-04   -0.26904E-05  6096   0.153E-02    0.530E-02
RMM:   7    -0.158979223428E+03    0.21347E-04   -0.26236E-05  5678   0.141E-02    0.459E-02
RMM:   8    -0.158979184530E+03    0.38898E-04   -0.16378E-04 10798   0.254E-02    0.297E-02
RMM:   9    -0.158979178790E+03    0.57397E-05   -0.69042E-05  9101   0.169E-02
  10 F= -.15897918E+03 E0= -.15897663E+03  d E =-.104302E-02
quench:  g(F)=  0.000E+00 g(S)=  0.000E+00 dE (1.order)= 0.000E+00
 bond charge predicted
       N       E                     dE             d eps       ncg     rms          rms(c)
DAV:   1    -0.158978734037E+03    0.45049E-03   -0.65862E-01 10000   0.168E+00    0.129E-01
RMM:   2    -0.158983481969E+03   -0.47479E-02   -0.21486E-02 10056   0.310E-01    0.556E-01
RMM:   3    -0.158981451381E+03    0.20306E-02   -0.33413E-03 13430   0.110E-01    0.298E-01
RMM:   4    -0.158980843498E+03    0.60788E-03   -0.72726E-04 10025   0.739E-02    0.185E-01
RMM:   5    -0.158980485044E+03    0.35845E-03   -0.15991E-04  9999   0.371E-02    0.769E-02
RMM:   6    -0.158980439312E+03    0.45732E-04   -0.29870E-05  6283   0.158E-02    0.616E-02
RMM:   7    -0.158980407237E+03    0.32076E-04   -0.38017E-05  6665   0.156E-02    0.516E-02
RMM:   8    -0.158980353961E+03    0.53275E-04   -0.21933E-04 10947   0.286E-02    0.343E-02
RMM:   9    -0.158980346997E+03    0.69639E-05   -0.97394E-05  9982   0.193E-02
  11 F= -.15898035E+03 E0= -.15897781E+03  d E =-.116821E-02
quench:  g(F)=  0.000E+00 g(S)=  0.000E+00 dE (1.order)= 0.000E+00
 bond charge predicted
       N       E                     dE             d eps       ncg     rms          rms(c)
DAV:   1    -0.158979716593E+03    0.63737E-03   -0.80074E-01 10000   0.186E+00    0.141E-01
RMM:   2    -0.158985649261E+03   -0.59327E-02   -0.26121E-02 10058   0.342E-01    0.627E-01
RMM:   3    -0.158982879885E+03    0.27694E-02   -0.40392E-03 13505   0.121E-01    0.304E-01
RMM:   4    -0.158982276205E+03    0.60368E-03   -0.82463E-04 10026   0.785E-02    0.205E-01
RMM:   5    -0.158981853653E+03    0.42255E-03   -0.19315E-04 10000   0.411E-02    0.844E-02
RMM:   6    -0.158981797700E+03    0.55953E-04   -0.39331E-05  6985   0.178E-02    0.671E-02
RMM:   7    -0.158981756891E+03    0.40809E-04   -0.51150E-05  7779   0.170E-02    0.555E-02
RMM:   8    -0.158981695421E+03    0.61470E-04   -0.23393E-04 10609   0.292E-02    0.377E-02
RMM:   9    -0.158981687857E+03    0.75641E-05   -0.11299E-04 10172   0.206E-02    0.267E-02
RMM:  10    -0.158981687627E+03    0.22956E-06   -0.45192E-05  7382   0.143E-02
  12 F= -.15898169E+03 E0= -.15897916E+03  d E =-.134063E-02
quench:  g(F)=  0.000E+00 g(S)=  0.000E+00 dE (1.order)= 0.000E+00
 bond charge predicted
       N       E                     dE             d eps       ncg     rms          rms(c)
DAV:   1    -0.158980808078E+03    0.87978E-03   -0.91069E-01 10000   0.198E+00    0.155E-01
RMM:   2    -0.158990387957E+03   -0.95799E-02   -0.31019E-02 10060   0.372E-01    0.854E-01
RMM:   3    -0.158984219550E+03    0.61684E-02   -0.47713E-03 12766   0.133E-01    0.275E-01
RMM:   4    -0.158983701924E+03    0.51763E-03   -0.97147E-04 10032   0.848E-02    0.203E-01
RMM:   5    -0.158983245987E+03    0.45594E-03   -0.21210E-04 10000   0.426E-02    0.856E-02
RMM:   6    -0.158983193319E+03    0.52668E-04   -0.38159E-05  6955   0.170E-02    0.699E-02
RMM:   7    -0.158983151345E+03    0.41973E-04   -0.51167E-05  7758   0.172E-02    0.603E-02
RMM:   8    -0.158983082462E+03    0.68883E-04   -0.24121E-04 10663   0.299E-02    0.411E-02
RMM:   9    -0.158983071269E+03    0.11193E-04   -0.12766E-04 10386   0.219E-02    0.280E-02
RMM:  10    -0.158983070114E+03    0.11550E-05   -0.49561E-05  7806   0.149E-02
  13 F= -.15898307E+03 E0= -.15898056E+03  d E =-.138249E-02
quench:  g(F)=  0.000E+00 g(S)=  0.000E+00 dE (1.order)= 0.000E+00
 bond charge predicted
       N       E                     dE             d eps       ncg     rms          rms(c)
DAV:   1    -0.158982186046E+03    0.88522E-03   -0.97319E-01 10000   0.205E+00    0.158E-01
RMM:   2    -0.158991543147E+03   -0.93571E-02   -0.32902E-02 10061   0.385E-01    0.827E-01
RMM:   3    -0.158985845871E+03    0.56973E-02   -0.50798E-03 13137   0.137E-01    0.290E-01
RMM:   4    -0.158985216600E+03    0.62927E-03   -0.99793E-04 10030   0.863E-02    0.196E-01
RMM:   5    -0.158984800522E+03    0.41608E-03   -0.21181E-04 10002   0.427E-02    0.902E-02
RMM:   6    -0.158984741804E+03    0.58719E-04   -0.41902E-05  7226   0.178E-02    0.721E-02
RMM:   7    -0.158984699669E+03    0.42135E-04   -0.52814E-05  7937   0.174E-02    0.637E-02
RMM:   8    -0.158984621613E+03    0.78056E-04   -0.26322E-04 10432   0.310E-02    0.426E-02
RMM:   9    -0.158984609903E+03    0.11710E-04   -0.13935E-04 10623   0.224E-02    0.293E-02
RMM:  10    -0.158984609156E+03    0.74716E-06   -0.58597E-05  8528   0.158E-02
  14 F= -.15898461E+03 E0= -.15898211E+03  d E =-.153904E-02
quench:  g(F)=  0.000E+00 g(S)=  0.000E+00 dE (1.order)= 0.000E+00
 bond charge predicted
       N       E                     dE             d eps       ncg     rms          rms(c)
DAV:   1    -0.158983322533E+03    0.12874E-02   -0.96824E-01 10000   0.204E+00    0.156E-01
RMM:   2    -0.158991268101E+03   -0.79456E-02   -0.32297E-02 10059   0.382E-01    0.735E-01
RMM:   3    -0.158986982027E+03    0.42861E-02   -0.49250E-03 13562   0.133E-01    0.300E-01
RMM:   4    -0.158986262394E+03    0.71963E-03   -0.94653E-04 10029   0.851E-02    0.174E-01
RMM:   5    -0.158985903551E+03    0.35884E-03   -0.18701E-04 10003   0.405E-02    0.811E-02
RMM:   6    -0.158985855152E+03    0.48399E-04   -0.37496E-05  6827   0.158E-02    0.686E-02
RMM:   7    -0.158985794092E+03    0.61060E-04   -0.14875E-04 10538   0.250E-02    0.639E-02
RMM:   8    -0.158985745766E+03    0.48326E-04   -0.20363E-04 11389   0.266E-02    0.443E-02
RMM:   9    -0.158985736018E+03    0.97479E-05   -0.91804E-05  9860   0.198E-02
  15 F= -.15898574E+03 E0= -.15898324E+03  d E =-.112686E-02
quench:  g(F)=  0.000E+00 g(S)=  0.000E+00 dE (1.order)= 0.000E+00
 bond charge predicted
       N       E                     dE             d eps       ncg     rms          rms(c)
DAV:   1    -0.158984681448E+03    0.10643E-02   -0.68296E-01 10000   0.172E+00    0.135E-01
RMM:   2    -0.158990549104E+03   -0.58677E-02   -0.22969E-02 10059   0.320E-01    0.639E-01
RMM:   3    -0.158987270936E+03    0.32782E-02   -0.35115E-03 13177   0.114E-01    0.261E-01
RMM:   4    -0.158986700026E+03    0.57091E-03   -0.71625E-04 10022   0.737E-02    0.141E-01
RMM:   5    -0.158986461898E+03    0.23813E-03   -0.13644E-04  9999   0.343E-02    0.678E-02
RMM:   6    -0.158986427151E+03    0.34747E-04   -0.28687E-05  6156   0.142E-02    0.574E-02
RMM:   7    -0.158986380527E+03    0.46624E-04   -0.12990E-04 10248   0.235E-02    0.504E-02
RMM:   8    -0.158986354178E+03    0.26350E-04   -0.11960E-04 10077   0.211E-02    0.337E-02
RMM:   9    -0.158986349852E+03    0.43253E-05   -0.71075E-05  8966   0.176E-02
  16 F= -.15898635E+03 E0= -.15898386E+03  d E =-.613834E-03
quench:  g(F)=  0.000E+00 g(S)=  0.000E+00 dE (1.order)= 0.000E+00
 bond charge predicted
       N       E                     dE             d eps       ncg     rms          rms(c)
DAV:   1    -0.158986416946E+03   -0.62769E-04   -0.16908E-02 10224   0.272E-01    0.277E-02
RMM:   2    -0.158986567575E+03   -0.15063E-03   -0.59883E-04 10003   0.525E-02    0.105E-01
RMM:   3    -0.158986519600E+03    0.47975E-04   -0.93806E-05  9806   0.204E-02    0.793E-02
RMM:   4    -0.158986468375E+03    0.51225E-04   -0.36605E-05  6717   0.167E-02    0.368E-02
RMM:   5    -0.158986456499E+03    0.11876E-04   -0.13260E-05  5359   0.138E-02    0.191E-02
RMM:   6    -0.158986453259E+03    0.32391E-05   -0.34615E-06  5112   0.704E-03
  17 F= -.15898645E+03 E0= -.15898396E+03  d E =-.103407E-03
quench:  g(F)=  0.000E+00 g(S)=  0.000E+00 dE (1.order)= 0.000E+00
 bond charge predicted
       N       E                     dE             d eps       ncg     rms          rms(c)
DAV:   1    -0.158986549938E+03   -0.93440E-04   -0.22385E-02 10064   0.312E-01    0.199E-02
RMM:   2    -0.158986746279E+03   -0.19634E-03   -0.67778E-04 10021   0.565E-02    0.120E-01
RMM:   3    -0.158986629904E+03    0.11638E-03   -0.95591E-05  9814   0.197E-02    0.425E-02
RMM:   4    -0.158986612544E+03    0.17360E-04   -0.17496E-05  5656   0.123E-02    0.251E-02
RMM:   5    -0.158986606401E+03    0.61429E-05   -0.65678E-06  5119   0.108E-02
  18 F= -.15898661E+03 E0= -.15898412E+03  d E =-.153142E-03
quench:  g(F)=  0.000E+00 g(S)=  0.000E+00 dE (1.order)= 0.000E+00
 bond charge predicted
       N       E                     dE             d eps       ncg     rms          rms(c)
DAV:   1    -0.158986738044E+03   -0.12550E-03   -0.90363E-03 10128   0.197E-01    0.167E-02
RMM:   2    -0.158986944495E+03   -0.20645E-03   -0.29111E-04  9954   0.370E-02    0.137E-01
RMM:   3    -0.158986765342E+03    0.17915E-03   -0.43656E-05  7473   0.142E-02    0.224E-02
RMM:   4    -0.158986758505E+03    0.68376E-05   -0.11221E-05  5437   0.115E-02
  19 F= -.15898676E+03 E0= -.15898427E+03  d E =-.152103E-03
quench:  g(F)=  0.000E+00 g(S)=  0.000E+00 dE (1.order)= 0.000E+00
 reached required accuracy - stopping structural energy minimisation
 writing wavefunctions
