 running on   20 total cores
 distrk:  each k-point on   20 cores,    1 groups
 distr:  one band on    1 cores,   20 groups
 using from now: INCAR     
 vasp.5.4.1 05Feb16 (build Nov 22 2018 20:17:51) complex                        
  
 POSCAR found type information on POSCAR  Pd H 
 POSCAR found :  2 types and       5 ions
 scaLAPACK will be used

 ----------------------------------------------------------------------------- 
|                                                                             |
|           W    W    AA    RRRRR   N    N  II  N    N   GGGG   !!!           |
|           W    W   A  A   R    R  NN   N  II  NN   N  G    G  !!!           |
|           W    W  A    A  R    R  N N  N  II  N N  N  G       !!!           |
|           W WW W  AAAAAA  RRRRR   N  N N  II  N  N N  G  GGG   !            |
|           WW  WW  A    A  R   R   N   NN  II  N   NN  G    G                |
|           W    W  A    A  R    R  N    N  II  N    N   GGGG   !!!           |
|                                                                             |
|      For optimal performance we recommend to set                            |
|        NCORE= 4 - approx SQRT( number of cores)                             |
|      NCORE specifies how many cores store one orbital (NPAR=cpu/NCORE).     |
|      This setting can  greatly improve the performance of VASP for DFT.     |
|      The default, NPAR=number of cores might be grossly inefficient         |
|      on modern multi-core architectures or massively parallel machines.     |
|      Do your own testing !!!!                                               |
|      Unfortunately you need to use the default for GW and RPA calculations. |
|      (for HF NCORE is supported but not extensively tested yet)             |
|                                                                             |
 ----------------------------------------------------------------------------- 

 LDA part: xc-table for Ceperly-Alder, standard interpolation
 POSCAR found type information on POSCAR  Pd H 
 POSCAR found :  2 types and       5 ions
 POSCAR, INCAR and KPOINTS ok, starting setup
 WARNING: small aliasing (wrap around) errors must be expected
 FFT: planning ...
 WAVECAR not read
 entering main loop
       N       E                     dE             d eps       ncg     rms          rms(c)
DAV:   1     0.293014627710E+03    0.29301E+03   -0.19118E+04  4500   0.101E+03
DAV:   2    -0.190359415199E+02   -0.31205E+03   -0.27382E+03  4500   0.269E+02
DAV:   3    -0.252063837169E+02   -0.61704E+01   -0.61379E+01  6540   0.439E+01
DAV:   4    -0.253182380374E+02   -0.11185E+00   -0.11183E+00  5980   0.524E+00
DAV:   5    -0.253187167519E+02   -0.47871E-03   -0.47858E-03  6400   0.314E-01    0.618E+00
DAV:   6    -0.243937771333E+02    0.92494E+00   -0.16988E+00  6160   0.130E+01    0.149E+00
DAV:   7    -0.244537889818E+02   -0.60012E-01   -0.64466E-01  5240   0.810E+00    0.257E+00
DAV:   8    -0.243516932428E+02    0.10210E+00   -0.23323E-01  6380   0.576E+00    0.447E-01
DAV:   9    -0.243415509332E+02    0.10142E-01   -0.11330E-02  5540   0.765E-01    0.113E-01
DAV:  10    -0.243414960798E+02    0.54853E-04   -0.63287E-04  6280   0.257E-01    0.386E-02
DAV:  11    -0.243415388470E+02   -0.42767E-04   -0.45546E-05  5500   0.570E-02    0.104E-02
DAV:  12    -0.243415405990E+02   -0.17520E-05   -0.50958E-06  4920   0.201E-02
   1 F= -.24341541E+02 E0= -.24341290E+02  d E =-.243415E+02
 curvature:   0.00 expect dE= 0.000E+00 dE for cont linesearch  0.000E+00
 trial: gam= 0.00000 g(F)=  0.000E+00 g(S)=  0.545E-01 ort = 0.000E+00 (trialstep = 0.100E+01)
 search vector abs. value=  0.545E-01
 bond charge predicted
       N       E                     dE             d eps       ncg     rms          rms(c)
DAV:   1    -0.245442903715E+02   -0.20275E+00   -0.23743E+00  4580   0.138E+01    0.253E+00
DAV:   2    -0.243870407983E+02    0.15725E+00   -0.34672E-01  5680   0.587E+00    0.452E-01
DAV:   3    -0.243941732998E+02   -0.71325E-02   -0.34202E-02  5920   0.250E+00    0.873E-01
DAV:   4    -0.243845901062E+02    0.95832E-02   -0.12273E-02  6120   0.171E+00    0.148E-01
DAV:   5    -0.243841750318E+02    0.41507E-03   -0.15414E-03  6060   0.297E-01    0.706E-02
DAV:   6    -0.243841489549E+02    0.26077E-04   -0.18519E-04  6040   0.158E-01    0.165E-02
DAV:   7    -0.243841495614E+02   -0.60651E-06   -0.19776E-05  5620   0.327E-02
   2 F= -.24384150E+02 E0= -.24383887E+02  d E =-.426090E-01
 trial-energy change:   -0.042609  1 .order   -0.042909   -0.054452   -0.031366
 step:   2.7260(harm=  2.3587)  dis= 0.00000  next Energy=   -24.409675 (dE=-0.681E-01)
 bond charge predicted
       N       E                     dE             d eps       ncg     rms          rms(c)
DAV:   1    -0.248846127837E+02   -0.50046E+00   -0.70398E+00  4500   0.237E+01    0.439E+00
DAV:   2    -0.244142618140E+02    0.47035E+00   -0.10973E+00  5280   0.103E+01    0.836E-01
DAV:   3    -0.244407352753E+02   -0.26473E-01   -0.12904E-01  6280   0.471E+00    0.150E+00
DAV:   4    -0.244055427172E+02    0.35193E-01   -0.35745E-02  6060   0.308E+00    0.227E-01
DAV:   5    -0.244048227803E+02    0.71994E-03   -0.41387E-03  6080   0.380E-01    0.465E-02
DAV:   6    -0.244048955203E+02   -0.72740E-04   -0.21550E-04  6100   0.713E-02    0.188E-02
DAV:   7    -0.244049017462E+02   -0.62258E-05   -0.23743E-05  5800   0.353E-02
   3 F= -.24404902E+02 E0= -.24404642E+02  d E =-.633611E-01
 curvature:  -1.09 expect dE=-0.661E-03 dE for cont linesearch -0.661E-03
 ZBRENT: interpolating
 opt :   2.4592  next Energy=   -24.405667 (dE=-0.641E-01)
 bond charge predicted
       N       E                     dE             d eps       ncg     rms          rms(c)
DAV:   1    -0.244173104265E+02   -0.12415E-01   -0.16634E-01  4740   0.362E+00    0.683E-01
DAV:   2    -0.244063804436E+02    0.10930E-01   -0.25588E-02  5500   0.162E+00    0.217E-01
DAV:   3    -0.244079296544E+02   -0.15492E-02   -0.72677E-03  5700   0.117E+00    0.394E-01
DAV:   4    -0.244058504587E+02    0.20792E-02   -0.42229E-03  5920   0.782E-01    0.394E-02
DAV:   5    -0.244057917893E+02    0.58669E-04   -0.16658E-04  5800   0.841E-02    0.165E-02
DAV:   6    -0.244057927247E+02   -0.93534E-06   -0.93256E-06  4760   0.294E-02
   4 F= -.24405793E+02 E0= -.24405531E+02  d E =-.642521E-01
 curvature:  -1.27 expect dE=-0.114E-04 dE for cont linesearch -0.114E-04
 trial: gam= 0.00000 g(F)=  0.161E-65 g(S)=  0.901E-05 ort =-0.700E-03 (trialstep = 0.129E+01)
 search vector abs. value=  0.901E-05
 reached required accuracy - stopping structural energy minimisation
 writing wavefunctions
