 running on   35 total cores
 distrk:  each k-point on   35 cores,    1 groups
 distr:  one band on    1 cores,   35 groups
 using from now: INCAR     
 vasp.5.4.1 24Jun15 (build Oct 26 2018 17:15:27) complex                        
  
 POSCAR found type information on POSCAR  Co
 POSCAR found :  1 types and       2 ions
 scaLAPACK will be used

 ----------------------------------------------------------------------------- 
|                                                                             |
|           W    W    AA    RRRRR   N    N  II  N    N   GGGG   !!!           |
|           W    W   A  A   R    R  NN   N  II  NN   N  G    G  !!!           |
|           W    W  A    A  R    R  N N  N  II  N N  N  G       !!!           |
|           W WW W  AAAAAA  RRRRR   N  N N  II  N  N N  G  GGG   !            |
|           WW  WW  A    A  R   R   N   NN  II  N   NN  G    G                |
|           W    W  A    A  R    R  N    N  II  N    N   GGGG   !!!           |
|                                                                             |
|      For optimal performance we recommend to set                            |
|        NCORE= 4 - approx SQRT( number of cores)                             |
|      NCORE specifies how many cores store one orbital (NPAR=cpu/NCORE).     |
|      This setting can  greatly improve the performance of VASP for DFT.     |
|      The default, NPAR=number of cores might be grossly inefficient         |
|      on modern multi-core architectures or massively parallel machines.     |
|      Do your own testing !!!!                                               |
|      Unfortunately you need to use the default for GW and RPA calculations. |
|      (for HF NCORE is supported but not extensively tested yet)             |
|                                                                             |
 ----------------------------------------------------------------------------- 

 LDA part: xc-table for Ceperly-Alder, standard interpolation
 POSCAR, INCAR and KPOINTS ok, starting setup
 WARNING: small aliasing (wrap around) errors must be expected
 FFT: planning ...
 WAVECAR not read
 entering main loop
       N       E                     dE             d eps       ncg     rms          rms(c)
DAV:   1    -0.292765607804E+01   -0.29277E+01   -0.96675E+03 26180   0.695E+02
DAV:   2    -0.160615464781E+02   -0.13134E+02   -0.12971E+02 35595   0.459E+01
DAV:   3    -0.160737827332E+02   -0.12236E-01   -0.12232E-01 27965   0.166E+00
DAV:   4    -0.160737864681E+02   -0.37349E-05   -0.37350E-05 45185   0.187E-02
DAV:   5    -0.160737864678E+02    0.31810E-09   -0.34524E-10 28490   0.191E-05    0.114E+01
DAV:   6    -0.141435324259E+02    0.19303E+01   -0.37986E+01 28595   0.346E+01    0.446E+00
DAV:   7    -0.135764198379E+02    0.56711E+00   -0.50394E+00 28700   0.117E+01    0.109E+00
DAV:   8    -0.135406589796E+02    0.35761E-01   -0.91628E-02 28980   0.123E+00    0.782E-02
DAV:   9    -0.135399714362E+02    0.68754E-03   -0.16928E-03 36155   0.273E-01    0.234E-02
DAV:  10    -0.135399881487E+02   -0.16712E-04   -0.13086E-05 30450   0.221E-02    0.750E-03
DAV:  11    -0.135399860407E+02    0.21080E-05   -0.72701E-07 15750   0.492E-03
   1 F= -.13539986E+02 E0= -.13539824E+02  d E =-.135400E+02
 curvature:   0.00 expect dE= 0.000E+00 dE for cont linesearch  0.000E+00
 trial: gam= 0.00000 g(F)=  0.359E-44 g(S)=  0.589E-01 ort = 0.000E+00 (trialstep = 0.100E+01)
 search vector abs. value=  0.589E-01
 bond charge predicted
       N       E                     dE             d eps       ncg     rms          rms(c)
DAV:   1    -0.137903741331E+02   -0.25039E+00   -0.41552E+00 26845   0.122E+01    0.342E+00
DAV:   2    -0.136412210173E+02    0.14915E+00   -0.28726E+00 27475   0.900E+00    0.116E+00
DAV:   3    -0.135933956217E+02    0.47825E-01   -0.38506E-01 28840   0.341E+00    0.473E-01
DAV:   4    -0.135878833089E+02    0.55123E-02   -0.99766E-03 28280   0.257E-01    0.422E-02
DAV:   5    -0.135878641469E+02    0.19162E-04   -0.41901E-05 38990   0.336E-02    0.220E-02
DAV:   6    -0.135878534191E+02    0.10728E-04   -0.65164E-06 22610   0.116E-02    0.749E-03
DAV:   7    -0.135878500477E+02    0.33714E-05   -0.18554E-06 13125   0.540E-03
   2 F= -.13587850E+02 E0= -.13587701E+02  d E =-.478640E-01
 trial-energy change:   -0.047864  1 .order   -0.047195   -0.058869   -0.035522
 step:   2.1157(harm=  2.5214)  dis= 0.00000  next Energy=   -13.608595 (dE=-0.686E-01)
 bond charge predicted
       N       E                     dE             d eps       ncg     rms          rms(c)
DAV:   1    -0.138607450194E+02   -0.27289E+00   -0.51733E+00 26985   0.137E+01    0.377E+00
DAV:   2    -0.136706561472E+02    0.19009E+00   -0.33137E+00 27720   0.982E+00    0.117E+00
DAV:   3    -0.136186632699E+02    0.51993E-01   -0.40805E-01 29365   0.357E+00    0.522E-01
DAV:   4    -0.136118275060E+02    0.68358E-02   -0.12151E-02 27650   0.289E-01    0.479E-02
DAV:   5    -0.136118006820E+02    0.26824E-04   -0.56699E-05 38885   0.393E-02    0.243E-02
DAV:   6    -0.136117886343E+02    0.12048E-04   -0.84896E-06 25305   0.140E-02    0.818E-03
DAV:   7    -0.136117846895E+02    0.39448E-05   -0.20723E-06 13125   0.592E-03
   3 F= -.13611785E+02 E0= -.13611642E+02  d E =-.717986E-01
 curvature:  -1.17 expect dE=-0.826E-03 dE for cont linesearch -0.760E-03
 ZBRENT: extrapolating
 opt :   2.3507  next Energy=   -13.612511 (dE=-0.725E-01)
 bond charge predicted
       N       E                     dE             d eps       ncg     rms          rms(c)
DAV:   1    -0.136234753639E+02   -0.11687E-01   -0.23271E-01 26985   0.296E+00    0.789E-01
DAV:   2    -0.136150004841E+02    0.84749E-02   -0.14303E-01 27685   0.202E+00    0.238E-01
DAV:   3    -0.136128013272E+02    0.21992E-02   -0.17138E-02 29435   0.741E-01    0.110E-01
DAV:   4    -0.136124974583E+02    0.30387E-03   -0.55328E-04 27615   0.617E-02    0.103E-02
DAV:   5    -0.136124956270E+02    0.18314E-05   -0.30956E-06 26985   0.975E-03
   4 F= -.13612496E+02 E0= -.13612354E+02  d E =-.725096E-01
 curvature:  -1.12 expect dE=-0.796E-04 dE for cont linesearch -0.207E-05
 ZBRENT: bracketing found
 ZBRENT: interpolating
 opt :   2.3388  next Energy=   -13.612498 (dE=-0.725E-01)
 bond charge predicted
       N       E                     dE             d eps       ncg     rms          rms(c)
DAV:   1    -0.136125275215E+02   -0.30063E-04   -0.57206E-04 26705   0.148E-01    0.414E-02
DAV:   2    -0.136125031900E+02    0.24332E-04   -0.38341E-04 27440   0.104E-01    0.120E-02
DAV:   3    -0.136124971448E+02    0.60452E-05   -0.47015E-05 13265   0.390E-02
   5 F= -.13612497E+02 E0= -.13612355E+02  d E =-.725111E-01
 curvature:  -1.06 expect dE=-0.741E-04 dE for cont linesearch -0.203E-07
 ZBRENT: interpolating
 opt :   2.3375  next Energy=   -13.612497 (dE=-0.725E-01)
 bond charge predicted
       N       E                     dE             d eps       ncg     rms          rms(c)
DAV:   1    -0.136124960815E+02    0.71085E-05   -0.53199E-06 12950   0.157E-02    0.425E-03
DAV:   2    -0.136124958154E+02    0.26612E-06   -0.43513E-06 12950   0.113E-02
   6 F= -.13612496E+02 E0= -.13612354E+02  d E =-.725098E-01
 curvature:  -1.18 expect dE=-0.886E-04 dE for cont linesearch -0.898E-05
 ZBRENT: interpolating
 opt :   2.3387  next Energy=   -13.612497 (dE=-0.725E-01)
 bond charge predicted
       N       E                     dE             d eps       ncg     rms          rms(c)
DAV:   1    -0.136124959976E+02    0.83942E-07   -0.37411E-06 12950   0.121E-02    0.387E-03
DAV:   2    -0.136124958825E+02    0.11508E-06   -0.39162E-06 12950   0.107E-02
   7 F= -.13612496E+02 E0= -.13612354E+02  d E =-.725098E-01
 curvature:  -0.00 expect dE=-0.117E-07 dE for cont linesearch -0.131E-08
 ZBRENT: interpolating
 opt :   2.3381  next Energy=   -13.612496 (dE=-0.725E-01)
 bond charge predicted
       N       E                     dE             d eps       ncg     rms          rms(c)
DAV:   1    -0.136124959243E+02    0.73266E-07   -0.54778E-07 12950   0.475E-03    0.191E-03
DAV:   2    -0.136124958500E+02    0.74296E-07   -0.10064E-06 12950   0.544E-03
   8 F= -.13612496E+02 E0= -.13612354E+02  d E =-.725098E-01
 curvature:  -0.02 expect dE=-0.153E-05 dE for cont linesearch -0.280E-07
 ZBRENT: bisectioning
 opt :   2.3384  next Energy=   -13.612496 (dE=-0.725E-01)
 bond charge predicted
       N       E                     dE             d eps       ncg     rms          rms(c)
DAV:   1    -0.136124958493E+02    0.75021E-07   -0.13977E-07 12950   0.241E-03    0.998E-04
DAV:   2    -0.136124958576E+02   -0.83317E-08   -0.26657E-07 12950   0.280E-03
   9 F= -.13612496E+02 E0= -.13612354E+02  d E =-.725098E-01
 curvature:  -0.04 expect dE=-0.313E-05 dE for cont linesearch -0.399E-07
 ZBRENT: interpolating
 opt :   2.3382  next Energy=   -13.612496 (dE=-0.725E-01)
 bond charge predicted
       N       E                     dE             d eps       ncg     rms          rms(c)
DAV:   1    -0.136124958638E+02   -0.14572E-07   -0.23016E-08 12950   0.980E-04    0.434E-04
DAV:   2    -0.136124958555E+02    0.82882E-08   -0.52670E-08 12950   0.125E-03
  10 F= -.13612496E+02 E0= -.13612354E+02  d E =-.725098E-01
 curvature:  -0.02 expect dE=-0.136E-05 dE for cont linesearch -0.120E-09
 ZBRENT: interpolating
 opt :   2.3383  next Energy=   -13.612496 (dE=-0.725E-01)
 bond charge predicted
       N       E                     dE             d eps       ncg     rms          rms(c)
DAV:   1    -0.136124958582E+02    0.55877E-08   -0.27574E-09 12950   0.280E-04    0.269E-05
DAV:   2    -0.136124958586E+02   -0.39108E-09   -0.19015E-10 12950   0.790E-05
  11 F= -.13612496E+02 E0= -.13612354E+02  d E =-.725098E-01
 curvature:  -0.02 expect dE=-0.126E-05 dE for cont linesearch -0.104E-08
 ZBRENT: interpolating
 opt :   2.3382  next Energy=   -13.612496 (dE=-0.725E-01)
 bond charge predicted
       N       E                     dE             d eps       ncg     rms          rms(c)
DAV:   1    -0.136124958589E+02   -0.60459E-09   -0.20902E-10 12950   0.880E-05    0.402E-05
DAV:   2    -0.136124958584E+02    0.48340E-09   -0.22223E-10 12950   0.801E-05
  12 F= -.13612496E+02 E0= -.13612354E+02  d E =-.725098E-01
 curvature:  -0.00 expect dE=-0.328E-07 dE for cont linesearch -0.195E-10
 ZBRENT: interpolating
 opt :   2.3382  next Energy=   -13.612496 (dE=-0.725E-01)
 bond charge predicted
       N       E                     dE             d eps       ncg     rms          rms(c)
DAV:   1    -0.136124958589E+02   -0.85265E-10   -0.96007E-11 12950   0.595E-05    0.219E-05
DAV:   2    -0.136124958590E+02   -0.86857E-10   -0.21798E-11 12950   0.244E-05
  13 F= -.13612496E+02 E0= -.13612354E+02  d E =-.725098E-01
 curvature:  -0.00 expect dE=-0.127E-07 dE for cont linesearch -0.866E-11
 ZBRENT: interpolating
 opt :   2.3382  next Energy=   -13.612496 (dE=-0.725E-01)
 bond charge predicted
       N       E                     dE             d eps       ncg     rms          rms(c)
DAV:   1    -0.136124958595E+02   -0.51796E-09   -0.10377E-11 12950   0.201E-05    0.176E-05
DAV:   2    -0.136124958594E+02    0.10482E-09   -0.27968E-12 12950   0.872E-06
  14 F= -.13612496E+02 E0= -.13612354E+02  d E =-.725098E-01
 curvature:  -0.00 expect dE=-0.291E-08 dE for cont linesearch -0.208E-11
 ZBRENT: interpolating
 opt :   2.3382  next Energy=   -13.612496 (dE=-0.725E-01)
 bond charge predicted
       N       E                     dE             d eps       ncg     rms          rms(c)
DAV:   1    -0.136124958590E+02    0.45475E-09   -0.10426E-12 12950   0.705E-06    0.167E-05
DAV:   2    -0.136124958591E+02   -0.10436E-09   -0.79604E-14 12950   0.294E-06
  15 F= -.13612496E+02 E0= -.13612354E+02  d E =-.725098E-01
 curvature:  -0.00 expect dE=-0.719E-09 dE for cont linesearch -0.523E-12
 ZBRENT:  accuracy reached
 opt :   0.0000  next Energy=     0.000000 (dE= 0.135E+02)
 bond charge predicted
       N       E                     dE             d eps       ncg     rms          rms(c)
DAV:   1    -0.146595342346E+02   -0.10470E+01   -0.23706E+01 26705   0.305E+01    0.799E+00
DAV:   2    -0.138491610550E+02    0.81037E+00   -0.16138E+01 27370   0.199E+01    0.281E+00
DAV:   3    -0.135714566070E+02    0.27770E+00   -0.22781E+00 28070   0.845E+00    0.109E+00
DAV:   4    -0.135399031732E+02    0.31553E-01   -0.52795E-02 28560   0.579E-01    0.750E-02
DAV:   5    -0.135400088885E+02   -0.10572E-03   -0.15538E-04 39620   0.673E-02    0.548E-02
DAV:   6    -0.135399965899E+02    0.12299E-04   -0.28881E-05 30800   0.274E-02    0.259E-02
DAV:   7    -0.135399864582E+02    0.10132E-04   -0.24913E-05 27300   0.188E-02    0.897E-04
DAV:   8    -0.135399862948E+02    0.16347E-06   -0.61805E-08 13160   0.124E-03
  16 F= -.13539986E+02 E0= -.13539824E+02  d E =-.254079E-06
 curvature:   0.00 expect dE= 0.000E+00 dE for cont linesearch  0.000E+00
 ZBRENT: fatal error in bracketing
     please rerun with smaller EDIFF, or copy CONTCAR
     to POSCAR and continue
