 running on   35 total cores
 distrk:  each k-point on   35 cores,    1 groups
 distr:  one band on    1 cores,   35 groups
 using from now: INCAR     
 vasp.5.4.1 24Jun15 (build Oct 26 2018 17:15:27) complex                        
  
 POSCAR found type information on POSCAR  Co
 POSCAR found :  1 types and       2 ions
 scaLAPACK will be used

 ----------------------------------------------------------------------------- 
|                                                                             |
|           W    W    AA    RRRRR   N    N  II  N    N   GGGG   !!!           |
|           W    W   A  A   R    R  NN   N  II  NN   N  G    G  !!!           |
|           W    W  A    A  R    R  N N  N  II  N N  N  G       !!!           |
|           W WW W  AAAAAA  RRRRR   N  N N  II  N  N N  G  GGG   !            |
|           WW  WW  A    A  R   R   N   NN  II  N   NN  G    G                |
|           W    W  A    A  R    R  N    N  II  N    N   GGGG   !!!           |
|                                                                             |
|      For optimal performance we recommend to set                            |
|        NCORE= 4 - approx SQRT( number of cores)                             |
|      NCORE specifies how many cores store one orbital (NPAR=cpu/NCORE).     |
|      This setting can  greatly improve the performance of VASP for DFT.     |
|      The default, NPAR=number of cores might be grossly inefficient         |
|      on modern multi-core architectures or massively parallel machines.     |
|      Do your own testing !!!!                                               |
|      Unfortunately you need to use the default for GW and RPA calculations. |
|      (for HF NCORE is supported but not extensively tested yet)             |
|                                                                             |
 ----------------------------------------------------------------------------- 

 LDA part: xc-table for Ceperly-Alder, standard interpolation
 POSCAR, INCAR and KPOINTS ok, starting setup
 WARNING: small aliasing (wrap around) errors must be expected
 FFT: planning ...
 WAVECAR not read
 entering main loop
       N       E                     dE             d eps       ncg     rms          rms(c)
DAV:   1    -0.284444205177E+01   -0.28444E+01   -0.96901E+03 52220   0.695E+02
DAV:   2    -0.160747891456E+02   -0.13230E+02   -0.13049E+02 71190   0.461E+01
DAV:   3    -0.160873500388E+02   -0.12561E-01   -0.12557E-01 55825   0.167E+00
DAV:   4    -0.160873540966E+02   -0.40578E-05   -0.40575E-05 90825   0.195E-02
DAV:   5    -0.160873540964E+02    0.21623E-09   -0.23522E-10 56595   0.165E-05    0.114E+01
DAV:   6    -0.144044056367E+02    0.16829E+01   -0.36888E+01 57155   0.340E+01    0.700E+00
DAV:   7    -0.139718727973E+02    0.43253E+00   -0.50524E+00 56875   0.114E+01    0.222E+00
DAV:   8    -0.139308699888E+02    0.41003E-01   -0.29370E-01 71330   0.202E+00    0.233E+00
DAV:   9    -0.139780034345E+02   -0.47133E-01   -0.85117E-02 68950   0.112E+00    0.385E-01
DAV:  10    -0.139733985343E+02    0.46049E-02   -0.32290E-03 56280   0.201E-01    0.236E-01
DAV:  11    -0.139734466135E+02   -0.48079E-04   -0.68857E-04 71050   0.803E-02    0.539E-02
DAV:  12    -0.139734777998E+02   -0.31186E-04   -0.82428E-05 72135   0.347E-02    0.826E-03
DAV:  13    -0.139734783381E+02   -0.53823E-06   -0.32786E-06 28595   0.788E-03
   1 F= -.13973478E+02 E0= -.13973441E+02  d E =-.139735E+02  mag=     3.1818
 curvature:   0.00 expect dE= 0.000E+00 dE for cont linesearch  0.000E+00
 trial: gam= 0.00000 g(F)=  0.562E-43 g(S)=  0.552E-02 ort = 0.000E+00 (trialstep = 0.100E+01)
 search vector abs. value=  0.552E-02
 bond charge predicted
       N       E                     dE             d eps       ncg     rms          rms(c)
DAV:   1    -0.139960998788E+02   -0.22622E-01   -0.37702E-01 54530   0.373E+00    0.102E+00
DAV:   2    -0.139821741978E+02    0.13926E-01   -0.24084E-01 55475   0.261E+00    0.333E-01
DAV:   3    -0.139783527553E+02    0.38214E-02   -0.31068E-02 59500   0.987E-01    0.149E-01
DAV:   4    -0.139778356655E+02    0.51709E-03   -0.93189E-04 57225   0.909E-02    0.261E-02
DAV:   5    -0.139778456536E+02   -0.99882E-05   -0.16799E-05 70980   0.184E-02
   2 F= -.13977846E+02 E0= -.13977800E+02  d E =-.436732E-02  mag=     3.1683
 trial-energy change:   -0.004367  1 .order   -0.004203   -0.005520   -0.002887
 step:   1.6740(harm=  2.0963)  dis= 0.00000  next Energy=   -13.978869 (dE=-0.539E-02)
 bond charge predicted
       N       E                     dE             d eps       ncg     rms          rms(c)
DAV:   1    -0.139877841981E+02   -0.99485E-02   -0.17318E-01 54740   0.254E+00    0.684E-01
DAV:   2    -0.139814965975E+02    0.62876E-02   -0.10870E-01 55545   0.175E+00    0.224E-01
DAV:   3    -0.139797729780E+02    0.17236E-02   -0.13856E-02 59780   0.661E-01    0.974E-02
DAV:   4    -0.139795549841E+02    0.21799E-03   -0.32973E-04 57855   0.524E-02    0.192E-02
DAV:   5    -0.139795561899E+02   -0.12058E-05   -0.99439E-06 56490   0.110E-02
   3 F= -.13979556E+02 E0= -.13979510E+02  d E =-.607785E-02  mag=     3.1596
 curvature:  -0.89 expect dE=-0.428E-03 dE for cont linesearch -0.409E-03
 ZBRENT: increasing intervall
 opt :   3.0220  next Energy=   -13.979955 (dE=-0.648E-02)
 bond charge predicted
       N       E                     dE             d eps       ncg     rms          rms(c)
DAV:   1    -0.140125483734E+02   -0.32993E-01   -0.68721E-01 54705   0.505E+00    0.136E+00
DAV:   2    -0.139871768124E+02    0.25372E-01   -0.41969E-01 55475   0.347E+00    0.428E-01
DAV:   3    -0.139807716643E+02    0.64051E-02   -0.51609E-02 60095   0.128E+00    0.200E-01
DAV:   4    -0.139798378317E+02    0.93383E-03   -0.16379E-03 57295   0.121E-01    0.355E-02
DAV:   5    -0.139798519723E+02   -0.14141E-04   -0.35914E-05 74165   0.280E-02    0.144E-02
DAV:   6    -0.139798521923E+02   -0.22008E-06   -0.63857E-06 28105   0.128E-02
   4 F= -.13979852E+02 E0= -.13979806E+02  d E =-.637385E-02  mag=     3.1459
 curvature:  -0.87 expect dE=-0.333E-03 dE for cont linesearch -0.292E-03
 ZBRENT: bracketing found
 ZBRENT: interpolating
 opt :   2.4002  next Energy=   -13.980276 (dE=-0.680E-02)
 bond charge predicted
       N       E                     dE             d eps       ncg     rms          rms(c)
DAV:   1    -0.139876472916E+02   -0.77953E-02   -0.14698E-01 54390   0.236E+00    0.650E-01
DAV:   2    -0.139821223095E+02    0.55250E-02   -0.97383E-02 55720   0.166E+00    0.220E-01
DAV:   3    -0.139804523714E+02    0.16699E-02   -0.13136E-02 59850   0.645E-01    0.882E-02
DAV:   4    -0.139802416928E+02    0.21068E-03   -0.22129E-04 58415   0.471E-02    0.186E-02
DAV:   5    -0.139802479072E+02   -0.62143E-05   -0.10512E-05 48440   0.147E-02
   5 F= -.13980248E+02 E0= -.13980205E+02  d E =-.676957E-02  mag=     3.1493
 curvature:  -1.26 expect dE=-0.467E-04 dE for cont linesearch -0.339E-06
 ZBRENT: interpolating
 opt :   2.4173  next Energy=   -13.980248 (dE=-0.677E-02)
 bond charge predicted
       N       E                     dE             d eps       ncg     rms          rms(c)
DAV:   1    -0.139802570701E+02   -0.15377E-04   -0.11364E-04 53130   0.644E-02    0.203E-02
DAV:   2    -0.139802525176E+02    0.45525E-05   -0.86904E-05 45080   0.495E-02
   6 F= -.13980253E+02 E0= -.13980210E+02  d E =-.677418E-02  mag=     3.1492
 curvature:  -1.22 expect dE=-0.322E-03 dE for cont linesearch -0.251E-03
 ZBRENT: interpolating
 opt :   2.4008  next Energy=   -13.980248 (dE=-0.677E-02)
 bond charge predicted
       N       E                     dE             d eps       ncg     rms          rms(c)
DAV:   1    -0.139802527998E+02    0.42704E-05   -0.46013E-05 51765   0.426E-02    0.140E-02
DAV:   2    -0.139802498899E+02    0.29098E-05   -0.55363E-05 27440   0.401E-02
   7 F= -.13980250E+02 E0= -.13980207E+02  d E =-.677155E-02  mag=     3.1493
 curvature:  -0.00 expect dE=-0.878E-08 dE for cont linesearch -0.750E-08
 ZBRENT: bisectioning
 opt :   2.4090  next Energy=   -13.980303 (dE=-0.683E-02)
 bond charge predicted
       N       E                     dE             d eps       ncg     rms          rms(c)
DAV:   1    -0.139802510129E+02    0.17869E-05   -0.73526E-06 26005   0.172E-02    0.772E-03
DAV:   2    -0.139802503882E+02    0.62467E-06   -0.15691E-05 25935   0.215E-02
   8 F= -.13980250E+02 E0= -.13980208E+02  d E =-.677205E-02  mag=     3.1493
 curvature:  -0.40 expect dE=-0.266E-04 dE for cont linesearch -0.923E-05
 ZBRENT: interpolating
 opt :   2.4066  next Energy=   -13.980251 (dE=-0.677E-02)
 bond charge predicted
       N       E                     dE             d eps       ncg     rms          rms(c)
DAV:   1    -0.139802499591E+02    0.10538E-05   -0.12343E-07 25900   0.179E-03    0.181E-03
DAV:   2    -0.139802499004E+02    0.58682E-07   -0.10888E-06 25900   0.572E-03
   9 F= -.13980250E+02 E0= -.13980207E+02  d E =-.677156E-02  mag=     3.1493
 curvature:  -0.02 expect dE=-0.736E-06 dE for cont linesearch -0.114E-06
 ZBRENT: interpolating
 opt :   2.4074  next Energy=   -13.980250 (dE=-0.677E-02)
 bond charge predicted
       N       E                     dE             d eps       ncg     rms          rms(c)
DAV:   1    -0.139802499852E+02   -0.26067E-07   -0.39504E-08 25900   0.126E-03    0.840E-04
DAV:   2    -0.139802499994E+02   -0.14244E-07   -0.17148E-07 25900   0.225E-03
  10 F= -.13980250E+02 E0= -.13980207E+02  d E =-.677166E-02  mag=     3.1493
 curvature:  -0.01 expect dE=-0.445E-06 dE for cont linesearch -0.247E-08
 ZBRENT: interpolating
 opt :   2.4076  next Energy=   -13.980250 (dE=-0.677E-02)
 bond charge predicted
       N       E                     dE             d eps       ncg     rms          rms(c)
DAV:   1    -0.139802500071E+02   -0.21937E-07   -0.62918E-08 25900   0.147E-03    0.273E-04
DAV:   2    -0.139802500166E+02   -0.94221E-08   -0.11087E-08 25900   0.552E-04
  11 F= -.13980250E+02 E0= -.13980207E+02  d E =-.677168E-02  mag=     3.1493
 curvature:  -0.02 expect dE=-0.540E-06 dE for cont linesearch -0.117E-07
 ZBRENT: bisectioning
 opt :   2.4083  next Energy=   -13.980250 (dE=-0.677E-02)
 bond charge predicted
       N       E                     dE             d eps       ncg     rms          rms(c)
DAV:   1    -0.139802500810E+02   -0.73841E-07   -0.23332E-07 25900   0.295E-03    0.796E-04
DAV:   2    -0.139802500928E+02   -0.11814E-07   -0.13502E-07 25900   0.196E-03
  12 F= -.13980250E+02 E0= -.13980208E+02  d E =-.677175E-02  mag=     3.1493
 curvature:  -0.12 expect dE=-0.445E-05 dE for cont linesearch -0.284E-07
 ZBRENT: bisectioning
 opt :   2.4087  next Energy=   -13.980250 (dE=-0.677E-02)
 bond charge predicted
       N       E                     dE             d eps       ncg     rms          rms(c)
DAV:   1    -0.139802501143E+02   -0.33300E-07   -0.12499E-07 25900   0.211E-03    0.484E-04
DAV:   2    -0.139802501245E+02   -0.10252E-07   -0.40305E-08 25900   0.106E-03
  13 F= -.13980250E+02 E0= -.13980208E+02  d E =-.677179E-02  mag=     3.1493
 curvature:  -0.04 expect dE=-0.157E-05 dE for cont linesearch -0.218E-07
 ZBRENT: bisectioning
 opt :   2.4088  next Energy=   -13.980250 (dE=-0.677E-02)
 bond charge predicted
       N       E                     dE             d eps       ncg     rms          rms(c)
DAV:   1    -0.139802501334E+02   -0.19082E-07   -0.35049E-08 25900   0.112E-03    0.278E-04
DAV:   2    -0.139802501398E+02   -0.64745E-08   -0.11560E-08 25900   0.564E-04
  14 F= -.13980250E+02 E0= -.13980208E+02  d E =-.677180E-02  mag=     3.1493
 curvature:  -0.02 expect dE=-0.730E-06 dE for cont linesearch -0.146E-07
 ZBRENT: bisectioning
 opt :   2.4089  next Energy=   -13.980250 (dE=-0.677E-02)
 bond charge predicted
       N       E                     dE             d eps       ncg     rms          rms(c)
DAV:   1    -0.139802501434E+02   -0.10001E-07   -0.95898E-09 25900   0.590E-04    0.154E-04
DAV:   2    -0.139802501463E+02   -0.29777E-08   -0.31923E-09 25900   0.297E-04
  15 F= -.13980250E+02 E0= -.13980208E+02  d E =-.677181E-02  mag=     3.1493
 curvature:  -0.01 expect dE=-0.293E-06 dE for cont linesearch -0.707E-08
 ZBRENT: bisectioning
 opt :   2.4090  next Energy=   -13.980250 (dE=-0.677E-02)
 bond charge predicted
       N       E                     dE             d eps       ncg     rms          rms(c)
DAV:   1    -0.139802501478E+02   -0.44777E-08   -0.25669E-09 25900   0.307E-04    0.853E-05
DAV:   2    -0.139802501504E+02   -0.25439E-08   -0.85772E-10 25900   0.154E-04
  16 F= -.13980250E+02 E0= -.13980208E+02  d E =-.677181E-02  mag=     3.1493
 curvature:  -0.00 expect dE=-0.131E-06 dE for cont linesearch -0.348E-08
 ZBRENT: bisectioning
 opt :   2.4090  next Energy=   -13.980250 (dE=-0.677E-02)
 bond charge predicted
       N       E                     dE             d eps       ncg     rms          rms(c)
DAV:   1    -0.139802501505E+02   -0.27048E-08   -0.67559E-10 25900   0.158E-04    0.505E-05
DAV:   2    -0.139802501512E+02   -0.70031E-09   -0.22572E-10 25900   0.795E-05
  17 F= -.13980250E+02 E0= -.13980208E+02  d E =-.677181E-02  mag=     3.1493
 curvature:  -0.00 expect dE=-0.619E-07 dE for cont linesearch -0.172E-08
 ZBRENT: bisectioning
 opt :   2.4090  next Energy=   -13.980250 (dE=-0.677E-02)
 bond charge predicted
       N       E                     dE             d eps       ncg     rms          rms(c)
DAV:   1    -0.139802501516E+02   -0.11075E-08   -0.17543E-10 25900   0.810E-05    0.353E-05
DAV:   2    -0.139802501518E+02   -0.15757E-09   -0.58488E-11 25900   0.406E-05
  18 F= -.13980250E+02 E0= -.13980208E+02  d E =-.677181E-02  mag=     3.1493
 curvature:  -0.00 expect dE=-0.300E-07 dE for cont linesearch -0.858E-09
 ZBRENT: bisectioning
 opt :   2.4090  next Energy=   -13.980250 (dE=-0.677E-02)
 bond charge predicted
       N       E                     dE             d eps       ncg     rms          rms(c)
DAV:   1    -0.139802501519E+02   -0.26421E-09   -0.44944E-11 25900   0.413E-05    0.299E-05
DAV:   2    -0.139802501524E+02   -0.45952E-09   -0.14972E-11 25900   0.206E-05
  19 F= -.13980250E+02 E0= -.13980208E+02  d E =-.677181E-02  mag=     3.1493
 curvature:  -0.00 expect dE=-0.148E-07 dE for cont linesearch -0.428E-09
 ZBRENT:  can not reach accuracy
 opt :   0.0000  next Energy=     0.000000 (dE= 0.140E+02)
 bond charge predicted
       N       E                     dE             d eps       ncg     rms          rms(c)
DAV:   1    -0.140809850473E+02   -0.10073E+00   -0.22175E+00 54250   0.918E+00    0.247E+00
DAV:   2    -0.140004034898E+02    0.80582E-01   -0.14495E+00 55405   0.629E+00    0.832E-01
DAV:   3    -0.139762931205E+02    0.24110E-01   -0.19066E-01 58940   0.245E+00    0.339E-01
DAV:   4    -0.139733573457E+02    0.29358E-02   -0.36621E-03 58485   0.192E-01    0.914E-02
DAV:   5    -0.139734602229E+02   -0.10288E-03   -0.82210E-05 77630   0.548E-02    0.223E-02
DAV:   6    -0.139734754781E+02   -0.15255E-04   -0.92595E-06 40285   0.127E-02    0.154E-02
DAV:   7    -0.139734767787E+02   -0.13006E-05   -0.83169E-07 26390   0.460E-03
  20 F= -.13973477E+02 E0= -.13973440E+02  d E =0.155938E-05  mag=     3.1809
 curvature:   0.00 expect dE= 0.000E+00 dE for cont linesearch  0.000E+00
 ZBRENT: fatal error in bracketing
     please rerun with smaller EDIFF, or copy CONTCAR
     to POSCAR and continue
