 running on   18 total cores
 distrk:  each k-point on   18 cores,    1 groups
 distr:  one band on    1 cores,   18 groups
 using from now: INCAR     
 vasp.5.4.1 24Jun15 (build Oct 26 2018 17:15:27) complex                        
  
 POSCAR found type information on POSCAR  Co
 POSCAR found :  1 types and       2 ions
 scaLAPACK will be used

 ----------------------------------------------------------------------------- 
|                                                                             |
|           W    W    AA    RRRRR   N    N  II  N    N   GGGG   !!!           |
|           W    W   A  A   R    R  NN   N  II  NN   N  G    G  !!!           |
|           W    W  A    A  R    R  N N  N  II  N N  N  G       !!!           |
|           W WW W  AAAAAA  RRRRR   N  N N  II  N  N N  G  GGG   !            |
|           WW  WW  A    A  R   R   N   NN  II  N   NN  G    G                |
|           W    W  A    A  R    R  N    N  II  N    N   GGGG   !!!           |
|                                                                             |
|      For optimal performance we recommend to set                            |
|        NCORE= 4 - approx SQRT( number of cores)                             |
|      NCORE specifies how many cores store one orbital (NPAR=cpu/NCORE).     |
|      This setting can  greatly improve the performance of VASP for DFT.     |
|      The default, NPAR=number of cores might be grossly inefficient         |
|      on modern multi-core architectures or massively parallel machines.     |
|      Do your own testing !!!!                                               |
|      Unfortunately you need to use the default for GW and RPA calculations. |
|      (for HF NCORE is supported but not extensively tested yet)             |
|                                                                             |
 ----------------------------------------------------------------------------- 

 LDA part: xc-table for Ceperly-Alder, standard interpolation
 POSCAR, INCAR and KPOINTS ok, starting setup
 WARNING: small aliasing (wrap around) errors must be expected
 FFT: planning ...
 WAVECAR not read
 entering main loop
       N       E                     dE             d eps       ncg     rms          rms(c)
DAV:   1     0.191122734964E+02    0.19112E+02   -0.94775E+03 26676   0.136E+03
DAV:   2    -0.157356184957E+02   -0.34848E+02   -0.34445E+02 28440   0.115E+02
DAV:   3    -0.158739283718E+02   -0.13831E+00   -0.13830E+00 37422   0.105E+01
DAV:   4    -0.158741221503E+02   -0.19378E-03   -0.19378E-03 31428   0.269E-01
DAV:   5    -0.158741227945E+02   -0.64418E-06   -0.64390E-06 38862   0.113E-02    0.116E+01
DAV:   6    -0.140504253648E+02    0.18237E+01   -0.34336E+01 27936   0.649E+01    0.396E+00
DAV:   7    -0.135976370745E+02    0.45279E+00   -0.42462E+00 27144   0.217E+01    0.146E+00
DAV:   8    -0.135719312416E+02    0.25706E-01   -0.12872E-01 38484   0.357E+00    0.385E-01
DAV:   9    -0.135706753910E+02    0.12559E-02   -0.29557E-02 34362   0.153E+00    0.278E-01
DAV:  10    -0.135710903535E+02   -0.41496E-03   -0.44729E-03 39366   0.705E-01    0.156E-01
DAV:  11    -0.135714366658E+02   -0.34631E-03   -0.30763E-03 32004   0.608E-01    0.153E-01
DAV:  12    -0.135716341333E+02   -0.19747E-03   -0.22311E-03 35586   0.477E-01    0.107E-01
DAV:  13    -0.135718781542E+02   -0.24402E-03   -0.59690E-03 33228   0.821E-01    0.696E-02
DAV:  14    -0.135719136959E+02   -0.35542E-04   -0.10276E-03 40842   0.332E-01    0.368E-02
DAV:  15    -0.135719125128E+02    0.11832E-05   -0.24096E-05 14904   0.505E-02
   1 F= -.13571913E+02 E0= -.13571739E+02  d E =-.135719E+02  mag=    -0.0000
 curvature:   0.00 expect dE= 0.000E+00 dE for cont linesearch  0.000E+00
 trial: gam= 0.00000 g(F)=  0.822E-44 g(S)=  0.153E-01 ort = 0.000E+00 (trialstep = 0.100E+01)
 search vector abs. value=  0.153E-01
 bond charge predicted
       N       E                     dE             d eps       ncg     rms          rms(c)
DAV:   1    -0.136358967769E+02   -0.63983E-01   -0.10678E+00 27144   0.122E+01    0.174E+00
DAV:   2    -0.135978066843E+02    0.38090E-01   -0.71073E-01 27216   0.871E+00    0.567E-01
DAV:   3    -0.135867361766E+02    0.11071E-01   -0.92015E-02 27576   0.329E+00    0.297E-01
DAV:   4    -0.135860239578E+02    0.71222E-03   -0.78916E-03 35208   0.869E-01    0.154E-01
DAV:   5    -0.135866271393E+02   -0.60318E-03   -0.61742E-03 33984   0.763E-01    0.165E-01
DAV:   6    -0.135871261933E+02   -0.49905E-03   -0.45303E-03 35892   0.698E-01    0.200E-01
DAV:   7    -0.135853531429E+02    0.17731E-02   -0.54587E-02 32184   0.244E+00    0.156E-01
DAV:   8    -0.135806537877E+02    0.46994E-02   -0.14775E-01 33948   0.408E+00    0.408E-01
DAV:   9    -0.135880005269E+02   -0.73467E-02   -0.39489E-01 32760   0.660E+00    0.283E-01
DAV:  10    -0.135894046696E+02   -0.14041E-02   -0.30606E-02 33732   0.183E+00    0.235E-01
DAV:  11    -0.135911996356E+02   -0.17950E-02   -0.30478E-02 34560   0.178E+00    0.226E-01
DAV:  12    -0.135912368688E+02   -0.37233E-04   -0.78114E-05 27864   0.794E-02    0.225E-01
DAV:  13    -0.135914122000E+02   -0.17533E-03   -0.28613E-04 22788   0.173E-01    0.224E-01
DAV:  14    -0.135914792183E+02   -0.67018E-04   -0.31455E-05 14832   0.568E-02    0.223E-01
DAV:  15    -0.135931044336E+02   -0.16252E-02   -0.30464E-02 31248   0.178E+00    0.199E-01
DAV:  16    -0.135934813201E+02   -0.37689E-03   -0.19147E-03 40140   0.440E-01    0.187E-01
DAV:  17    -0.135939487424E+02   -0.46742E-03   -0.40925E-03 32040   0.648E-01    0.181E-01
DAV:  18    -0.135944737957E+02   -0.52505E-03   -0.57769E-03 33948   0.771E-01    0.177E-01
DAV:  19    -0.135951300406E+02   -0.65624E-03   -0.11662E-02 31536   0.109E+00    0.144E-01
DAV:  20    -0.135935296552E+02    0.16004E-02   -0.68057E-02 30636   0.270E+00    0.202E-01
DAV:  21    -0.135939740518E+02   -0.44440E-03   -0.37657E-03 31320   0.631E-01    0.188E-01
DAV:  22    -0.135948138593E+02   -0.83981E-03   -0.16588E-02 31536   0.131E+00    0.156E-01
DAV:  23    -0.135957429061E+02   -0.92905E-03   -0.55487E-02 32256   0.237E+00    0.866E-02
DAV:  24    -0.135957118300E+02    0.31076E-04   -0.12651E-03 39096   0.372E-01    0.828E-02
DAV:  25    -0.135958649969E+02   -0.15317E-03   -0.13715E-02 30996   0.117E+00    0.858E-02
DAV:  26    -0.135958617104E+02    0.32866E-05   -0.14551E-04 31464   0.115E-01    0.857E-02
DAV:  27    -0.135958743173E+02   -0.12607E-04   -0.97733E-03 30960   0.950E-01    0.907E-02
DAV:  28    -0.135958782723E+02   -0.39550E-05   -0.47859E-03 34344   0.676E-01    0.945E-02
DAV:  29    -0.135958779506E+02    0.32171E-06   -0.14083E-04 21960   0.123E-01    0.936E-02
DAV:  30    -0.135958758934E+02    0.20572E-05   -0.92827E-06 13644   0.277E-02
   2 F= -.13595876E+02 E0= -.13595740E+02  d E =-.239634E-01  mag=     0.0000
 ZBRENT: can't locate minimum, use default step
 trial-energy change:   -0.023963  1 .order   -0.014674   -0.015313   -0.014035
 step:   4.0000(harm= 11.9805)  dis= 0.00000  next Energy=   -13.663641 (dE=-0.917E-01)
 bond charge predicted
       N       E                     dE             d eps       ncg     rms          rms(c)
DAV:   1    -0.140639572724E+02   -0.46808E+00   -0.94881E+00 26928   0.361E+01    0.508E+00
DAV:   2    -0.137101294013E+02    0.35383E+00   -0.58039E+00 26784   0.257E+01    0.149E+00
DAV:   3    -0.136226221067E+02    0.87507E-01   -0.67416E-01 27180   0.905E+00    0.704E-01
DAV:   4    -0.136101051639E+02    0.12517E-01   -0.21958E-02 36900   0.774E-01    0.653E-02
DAV:   5    -0.136100553904E+02    0.49773E-04   -0.13138E-04 27792   0.110E-01    0.332E-02
DAV:   6    -0.136100424754E+02    0.12915E-04   -0.29927E-05 17316   0.572E-02    0.137E-02
DAV:   7    -0.136100379370E+02    0.45384E-05   -0.24620E-05 14148   0.460E-02
   3 F= -.13610038E+02 E0= -.13609889E+02  d E =-.381254E-01  mag=    -0.0000
 curvature:  -2.83 expect dE=-0.711E-02 dE for cont linesearch -0.699E-02
 ZBRENT: interpolating
 opt :   3.0855  next Energy=   -13.612852 (dE=-0.409E-01)
 bond charge predicted
       N       E                     dE             d eps       ncg     rms          rms(c)
DAV:   1    -0.136552875237E+02   -0.45245E-01   -0.90779E-01 26928   0.115E+01    0.156E+00
DAV:   2    -0.136225166515E+02    0.32771E-01   -0.56027E-01 26820   0.771E+00    0.471E-01
DAV:   3    -0.136137824214E+02    0.87342E-02   -0.67280E-02 27432   0.288E+00    0.211E-01
DAV:   4    -0.136125821823E+02    0.12002E-02   -0.18361E-03 35748   0.221E-01    0.149E-02
DAV:   5    -0.136125871561E+02   -0.49738E-05   -0.73825E-06 20232   0.269E-02
   4 F= -.13612587E+02 E0= -.13612439E+02  d E =-.406746E-01  mag=    -0.0000
 curvature:  -1.14 expect dE=-0.413E-04 dE for cont linesearch -0.238E-04
 ZBRENT: interpolating
 opt :   3.1625  next Energy=   -13.612609 (dE=-0.407E-01)
 bond charge predicted
       N       E                     dE             d eps       ncg     rms          rms(c)
DAV:   1    -0.136129322514E+02   -0.35007E-03   -0.62392E-03 26928   0.945E-01    0.134E-01
DAV:   2    -0.136126917561E+02    0.24050E-03   -0.40664E-03 27036   0.661E-01    0.401E-02
DAV:   3    -0.136126266704E+02    0.65086E-04   -0.50355E-04 27468   0.249E-01    0.196E-02
DAV:   4    -0.136126177205E+02    0.89499E-05   -0.21259E-05 14184   0.310E-02
   5 F= -.13612618E+02 E0= -.13612468E+02  d E =-.407052E-01  mag=    -0.0000
 curvature:  -1.04 expect dE=-0.155E-04 dE for cont linesearch -0.904E-07
 ZBRENT: interpolating
 opt :   3.1579  next Energy=   -13.612618 (dE=-0.407E-01)
 bond charge predicted
       N       E                     dE             d eps       ncg     rms          rms(c)
DAV:   1    -0.136126186866E+02    0.79838E-05   -0.22062E-05 13428   0.538E-02    0.899E-03
DAV:   2    -0.136126175129E+02    0.11737E-05   -0.16997E-05 13356   0.448E-02
   6 F= -.13612618E+02 E0= -.13612468E+02  d E =-.407050E-01  mag=     0.0000
 curvature:  -0.98 expect dE=-0.563E-04 dE for cont linesearch -0.469E-04
 ZBRENT: interpolating
 opt :   3.1623  next Energy=   -13.612618 (dE=-0.407E-01)
 bond charge predicted
       N       E                     dE             d eps       ncg     rms          rms(c)
DAV:   1    -0.136126182543E+02    0.43233E-06   -0.10523E-05 13320   0.395E-02    0.684E-03
DAV:   2    -0.136126178265E+02    0.42774E-06   -0.11861E-05 13428   0.372E-02
   7 F= -.13612618E+02 E0= -.13612468E+02  d E =-.407053E-01  mag=    -0.0000
 curvature:  -0.00 expect dE=-0.259E-08 dE for cont linesearch -0.126E-08
 ZBRENT: bisectioning
 opt :   3.1601  next Energy=   -13.612625 (dE=-0.407E-01)
 bond charge predicted
       N       E                     dE             d eps       ncg     rms          rms(c)
DAV:   1    -0.136126177483E+02    0.50602E-06   -0.17816E-06 13320   0.161E-02    0.406E-03
DAV:   2    -0.136126175757E+02    0.17258E-06   -0.34893E-06 13320   0.202E-02
   8 F= -.13612618E+02 E0= -.13612468E+02  d E =-.407051E-01  mag=    -0.0000
 curvature:  -0.43 expect dE=-0.921E-05 dE for cont linesearch -0.385E-05
 ZBRENT: interpolating
 opt :   3.1610  next Energy=   -13.612618 (dE=-0.407E-01)
 bond charge predicted
       N       E                     dE             d eps       ncg     rms          rms(c)
DAV:   1    -0.136126176744E+02    0.73830E-07   -0.37205E-07 13320   0.669E-03    0.248E-03
DAV:   2    -0.136126177251E+02   -0.50627E-07   -0.84459E-07 13320   0.952E-03
   9 F= -.13612618E+02 E0= -.13612468E+02  d E =-.407052E-01  mag=    -0.0000
 curvature:  -0.02 expect dE=-0.300E-06 dE for cont linesearch -0.389E-08
 ZBRENT: interpolating
 opt :   3.1609  next Energy=   -13.612618 (dE=-0.407E-01)
 bond charge predicted
       N       E                     dE             d eps       ncg     rms          rms(c)
DAV:   1    -0.136126177408E+02   -0.66325E-07   -0.18955E-07 13320   0.421E-03    0.198E-03
DAV:   2    -0.136126177898E+02   -0.49047E-07   -0.31962E-07 13320   0.543E-03
  10 F= -.13612618E+02 E0= -.13612468E+02  d E =-.407053E-01  mag=    -0.0000
 curvature:  -0.02 expect dE=-0.249E-06 dE for cont linesearch -0.571E-08
 ZBRENT: interpolating
 opt :   3.1610  next Energy=   -13.612618 (dE=-0.407E-01)
 bond charge predicted
       N       E                     dE             d eps       ncg     rms          rms(c)
DAV:   1    -0.136126178598E+02   -0.11900E-06   -0.53656E-07 13320   0.705E-03    0.181E-03
DAV:   2    -0.136126179038E+02   -0.44058E-07   -0.26145E-07 13320   0.484E-03
  11 F= -.13612618E+02 E0= -.13612468E+02  d E =-.407054E-01  mag=    -0.0000
 curvature:  -0.00 expect dE=-0.639E-07 dE for cont linesearch -0.844E-09
 ZBRENT: interpolating
 opt :   3.1610  next Energy=   -13.612618 (dE=-0.407E-01)
 bond charge predicted
       N       E                     dE             d eps       ncg     rms          rms(c)
DAV:   1    -0.136126181928E+02   -0.33305E-06   -0.17291E-05 13320   0.412E-02    0.117E-03
DAV:   2    -0.136126182262E+02   -0.33433E-07   -0.21168E-07 13320   0.383E-03
  12 F= -.13612618E+02 E0= -.13612468E+02  d E =-.407057E-01  mag=    -0.0000
 curvature:  -0.00 expect dE=-0.544E-07 dE for cont linesearch -0.586E-09
 ZBRENT: bisectioning
 opt :   3.1610  next Energy=   -13.612618 (dE=-0.407E-01)
 bond charge predicted
       N       E                     dE             d eps       ncg     rms          rms(c)
DAV:   1    -0.136126182353E+02   -0.42503E-07   -0.43923E-08 13320   0.180E-03    0.118E-03
DAV:   2    -0.136126182555E+02   -0.20207E-07   -0.11656E-07 13320   0.338E-03
  13 F= -.13612618E+02 E0= -.13612468E+02  d E =-.407057E-01  mag=     0.0000
 curvature:  -0.00 expect dE=-0.597E-07 dE for cont linesearch -0.953E-09
 ZBRENT: interpolating
 opt :   3.1610  next Energy=   -13.612618 (dE=-0.407E-01)
 bond charge predicted
       N       E                     dE             d eps       ncg     rms          rms(c)
DAV:   1    -0.136126182800E+02   -0.44719E-07   -0.17922E-07 13320   0.422E-03    0.109E-03
DAV:   2    -0.136126182972E+02   -0.17221E-07   -0.96996E-08 13320   0.298E-03
  14 F= -.13612618E+02 E0= -.13612468E+02  d E =-.407058E-01  mag=    -0.0000
 curvature:  -0.00 expect dE=-0.112E-07 dE for cont linesearch -0.165E-09
 ZBRENT: interpolating
 opt :   3.1610  next Energy=   -13.612618 (dE=-0.407E-01)
 bond charge predicted
       N       E                     dE             d eps       ncg     rms          rms(c)
DAV:   1    -0.136126184285E+02   -0.14846E-06   -0.10368E-05 13320   0.323E-02    0.593E-04
DAV:   2    -0.136126184419E+02   -0.13436E-07   -0.84204E-08 13320   0.228E-03
  15 F= -.13612618E+02 E0= -.13612468E+02  d E =-.407059E-01  mag=     0.0000
 curvature:  -0.00 expect dE=-0.593E-08 dE for cont linesearch -0.839E-10
 ZBRENT: interpolating
 opt :   3.1610  next Energy=   -13.612618 (dE=-0.407E-01)
 bond charge predicted
       N       E                     dE             d eps       ncg     rms          rms(c)
DAV:   1    -0.136126184425E+02   -0.13993E-07   -0.14768E-08 13320   0.184E-03    0.711E-04
DAV:   2    -0.136126184480E+02   -0.55632E-08   -0.37568E-08 13320   0.210E-03
  16 F= -.13612618E+02 E0= -.13612468E+02  d E =-.407059E-01  mag=     0.0000
 curvature:  -0.00 expect dE=-0.306E-08 dE for cont linesearch -0.461E-10
 ZBRENT: interpolating
 opt :   3.1610  next Energy=   -13.612618 (dE=-0.407E-01)
 bond charge predicted
       N       E                     dE             d eps       ncg     rms          rms(c)
DAV:   1    -0.136126184583E+02   -0.15788E-07   -0.13402E-07 13320   0.352E-03    0.644E-04
DAV:   2    -0.136126184638E+02   -0.55329E-08   -0.29007E-08 13320   0.167E-03
  17 F= -.13612618E+02 E0= -.13612468E+02  d E =-.407060E-01  mag=    -0.0000
 curvature:  -0.00 expect dE=-0.140E-08 dE for cont linesearch -0.209E-10
 ZBRENT: interpolating
 opt :   3.1610  next Energy=   -13.612618 (dE=-0.407E-01)
 bond charge predicted
       N       E                     dE             d eps       ncg     rms          rms(c)
DAV:   1    -0.136126184717E+02   -0.13483E-07   -0.10787E-07 13320   0.305E-03    0.599E-04
DAV:   2    -0.136126184761E+02   -0.43190E-08   -0.23898E-08 13320   0.145E-03
  18 F= -.13612618E+02 E0= -.13612468E+02  d E =-.407060E-01  mag=    -0.0000
 curvature:  -0.00 expect dE=-0.690E-09 dE for cont linesearch -0.103E-10
 ZBRENT: interpolating
 opt :   3.1610  next Energy=   -13.612618 (dE=-0.407E-01)
 bond charge predicted
       N       E                     dE             d eps       ncg     rms          rms(c)
DAV:   1    -0.136126184829E+02   -0.11195E-07   -0.67509E-08 13320   0.228E-03    0.560E-04
DAV:   2    -0.136126184870E+02   -0.40229E-08   -0.20025E-08 13320   0.124E-03
  19 F= -.13612618E+02 E0= -.13612468E+02  d E =-.407060E-01  mag=     0.0000
 curvature:  -0.00 expect dE=-0.339E-09 dE for cont linesearch -0.504E-11
 ZBRENT:  can not reach accuracy
 opt :   0.0000  next Energy=     0.000000 (dE= 0.136E+02)
 bond charge predicted
       N       E                     dE             d eps       ncg     rms          rms(c)
DAV:   1    -0.140950912023E+02   -0.48247E+00   -0.10970E+01 27288   0.400E+01    0.545E+00
DAV:   2    -0.137156666262E+02    0.37942E+00   -0.73407E+00 26856   0.268E+01    0.184E+00
DAV:   3    -0.135919018915E+02    0.12376E+00   -0.98288E-01 27252   0.109E+01    0.731E-01
DAV:   4    -0.135774817538E+02    0.14420E-01   -0.20809E-02 35928   0.723E-01    0.407E-02
DAV:   5    -0.135775527407E+02   -0.70987E-04   -0.14625E-04 28728   0.909E-02    0.361E-02
DAV:   6    -0.135775448574E+02    0.78833E-05   -0.21053E-05 17496   0.442E-02
  20 F= -.13577545E+02 E0= -.13577394E+02  d E =-.563234E-02  mag=    -0.0000
 curvature:   0.00 expect dE= 0.000E+00 dE for cont linesearch  0.000E+00
 ZBRENT: fatal error in bracketing
     please rerun with smaller EDIFF, or copy CONTCAR
     to POSCAR and continue
