 running on   18 total cores
 distrk:  each k-point on   18 cores,    1 groups
 distr:  one band on    1 cores,   18 groups
 using from now: INCAR     
 vasp.5.4.1 24Jun15 (build Oct 26 2018 17:15:27) complex                        
  
 POSCAR found type information on POSCAR  C  N  H 
 POSCAR found :  3 types and       3 ions
 scaLAPACK will be used

 ----------------------------------------------------------------------------- 
|                                                                             |
|           W    W    AA    RRRRR   N    N  II  N    N   GGGG   !!!           |
|           W    W   A  A   R    R  NN   N  II  NN   N  G    G  !!!           |
|           W    W  A    A  R    R  N N  N  II  N N  N  G       !!!           |
|           W WW W  AAAAAA  RRRRR   N  N N  II  N  N N  G  GGG   !            |
|           WW  WW  A    A  R   R   N   NN  II  N   NN  G    G                |
|           W    W  A    A  R    R  N    N  II  N    N   GGGG   !!!           |
|                                                                             |
|      For optimal performance we recommend to set                            |
|        NCORE= 4 - approx SQRT( number of cores)                             |
|      NCORE specifies how many cores store one orbital (NPAR=cpu/NCORE).     |
|      This setting can  greatly improve the performance of VASP for DFT.     |
|      The default, NPAR=number of cores might be grossly inefficient         |
|      on modern multi-core architectures or massively parallel machines.     |
|      Do your own testing !!!!                                               |
|      Unfortunately you need to use the default for GW and RPA calculations. |
|      (for HF NCORE is supported but not extensively tested yet)             |
|                                                                             |
 ----------------------------------------------------------------------------- 

 LDA part: xc-table for Ceperly-Alder, standard interpolation
 POSCAR, INCAR and KPOINTS ok, starting setup
 WARNING: small aliasing (wrap around) errors must be expected
 FFT: planning ...
 WAVECAR not read
 entering main loop
       N       E                     dE             d eps       ncg     rms          rms(c)
DAV:   1     0.397663468760E+02    0.39766E+02   -0.21802E+03    72   0.223E+02
DAV:   2    -0.186339571502E+02   -0.58400E+02   -0.58400E+02    54   0.712E+01
DAV:   3    -0.213067349041E+02   -0.26728E+01   -0.26728E+01    72   0.202E+01
DAV:   4    -0.213091241677E+02   -0.23893E-02   -0.23893E-02    36   0.641E-01
DAV:   5    -0.213091464158E+02   -0.22248E-04   -0.22246E-04    54   0.616E-02    0.910E+00
DAV:   6    -0.184880773102E+02    0.28211E+01   -0.69575E+00    36   0.962E+00    0.375E+00
DAV:   7    -0.180378035568E+02    0.45027E+00   -0.18003E+00    54   0.483E+00    0.149E+00
DAV:   8    -0.179991671195E+02    0.38636E-01   -0.74643E-02    72   0.114E+00    0.761E-01
DAV:   9    -0.179730396153E+02    0.26128E-01   -0.15884E-02    72   0.537E-01    0.137E-01
DAV:  10    -0.179694462887E+02    0.35933E-02   -0.91638E-03    36   0.315E-01    0.107E-01
DAV:  11    -0.179716809966E+02   -0.22347E-02   -0.69944E-03    72   0.342E-01    0.579E-02
DAV:  12    -0.179790642793E+02   -0.73833E-02   -0.57102E-03    36   0.327E-01    0.617E-02
DAV:  13    -0.179830981537E+02   -0.40339E-02   -0.32857E-03    54   0.205E-01    0.247E-02
DAV:  14    -0.179852879343E+02   -0.21898E-02   -0.55491E-04    36   0.861E-02    0.114E-02
DAV:  15    -0.179865859880E+02   -0.12981E-02   -0.42804E-04    72   0.581E-02    0.130E-02
DAV:  16    -0.179872706145E+02   -0.68463E-03   -0.14372E-04    72   0.385E-02    0.735E-03
DAV:  17    -0.179874289243E+02   -0.15831E-03   -0.17826E-05    72   0.138E-02    0.637E-03
DAV:  18    -0.179876546986E+02   -0.22577E-03   -0.47257E-05    36   0.187E-02    0.191E-03
DAV:  19    -0.179876828082E+02   -0.28110E-04   -0.14270E-06    72   0.422E-03    0.132E-03
DAV:  20    -0.179877185535E+02   -0.35745E-04   -0.20039E-06    36   0.416E-03    0.802E-04
DAV:  21    -0.179877222917E+02   -0.37381E-05   -0.13628E-07    36   0.163E-03
   1 F= -.17987722E+02 E0= -.17987722E+02  d E =-.179877E+02
 curvature:   0.00 expect dE= 0.000E+00 dE for cont linesearch  0.000E+00
 trial: gam= 0.00000 g(F)=  0.400E+01 g(S)=  0.000E+00 ort = 0.000E+00 (trialstep = 0.100E+01)
 search vector abs. value=  0.400E+01
 bond charge predicted
       N       E                     dE             d eps       ncg     rms          rms(c)
DAV:   1    -0.195128710457E+02   -0.15252E+01   -0.17556E+02    36   0.616E+01    0.527E+00
DAV:   2    -0.186388865202E+02    0.87398E+00   -0.71600E+00    54   0.861E+00    0.213E+00
DAV:   3    -0.185877790363E+02    0.51107E-01   -0.58215E-01    54   0.292E+00    0.983E-01
DAV:   4    -0.185766469867E+02    0.11132E-01   -0.69480E-02    72   0.113E+00    0.303E-01
DAV:   5    -0.185779730597E+02   -0.13261E-02   -0.89617E-03    36   0.421E-01    0.693E-02
DAV:   6    -0.185783676626E+02   -0.39460E-03   -0.78233E-04    36   0.114E-01    0.334E-02
DAV:   7    -0.185792861844E+02   -0.91852E-03   -0.76892E-04    36   0.125E-01    0.181E-02
DAV:   8    -0.185797572645E+02   -0.47108E-03   -0.11235E-04    72   0.423E-02    0.137E-02
DAV:   9    -0.185815169550E+02   -0.17597E-02   -0.11299E-03    36   0.108E-01    0.879E-03
DAV:  10    -0.185817246766E+02   -0.20772E-03   -0.46438E-05    72   0.243E-02    0.422E-03
DAV:  11    -0.185821068765E+02   -0.38220E-03   -0.71336E-05    36   0.278E-02    0.252E-03
DAV:  12    -0.185821976754E+02   -0.90799E-04   -0.91694E-06    72   0.119E-02    0.152E-03
DAV:  13    -0.185822920074E+02   -0.94332E-04   -0.12366E-05    72   0.105E-02    0.146E-03
DAV:  14    -0.185823045721E+02   -0.12565E-04   -0.57684E-07    36   0.247E-03    0.438E-04
DAV:  15    -0.185823285955E+02   -0.24023E-04   -0.97928E-07    36   0.315E-03    0.375E-04
DAV:  16    -0.185823307582E+02   -0.21627E-05   -0.45925E-08    72   0.112E-03
   2 F= -.18582331E+02 E0= -.18582331E+02  d E =-.594608E+00
 trial-energy change:   -0.594608  1 .order   -0.828208   -3.998497    2.342081
 step:   0.5767(harm=  0.6306)  dis= 0.02191  next Energy=   -19.095807 (dE=-0.111E+01)
 bond charge predicted
       N       E                     dE             d eps       ncg     rms          rms(c)
DAV:   1    -0.191845874039E+02   -0.60226E+00   -0.32465E+01    36   0.274E+01    0.210E+00
DAV:   2    -0.190991314793E+02    0.85456E-01   -0.15338E+00    54   0.415E+00    0.108E+00
DAV:   3    -0.190767377755E+02    0.22394E-01   -0.99526E-02    36   0.119E+00    0.500E-01
DAV:   4    -0.190711874990E+02    0.55503E-02   -0.40717E-02    54   0.872E-01    0.167E-01
DAV:   5    -0.190708033168E+02    0.38418E-03   -0.48584E-03    36   0.264E-01    0.588E-02
DAV:   6    -0.190712448700E+02   -0.44155E-03   -0.42456E-04    36   0.830E-02    0.213E-02
DAV:   7    -0.190718245438E+02   -0.57967E-03   -0.88830E-05    36   0.392E-02    0.100E-02
DAV:   8    -0.190731646464E+02   -0.13401E-02   -0.41564E-04    36   0.637E-02    0.529E-03
DAV:   9    -0.190737472783E+02   -0.58263E-03   -0.14329E-04    54   0.320E-02    0.363E-03
DAV:  10    -0.190740329078E+02   -0.28563E-03   -0.70435E-05    36   0.249E-02    0.187E-03
DAV:  11    -0.190741138036E+02   -0.80896E-04   -0.61503E-06    36   0.122E-02    0.128E-03
DAV:  12    -0.190741806113E+02   -0.66808E-04   -0.51242E-06    72   0.938E-03    0.693E-04
DAV:  13    -0.190742021034E+02   -0.21492E-04   -0.87701E-07    36   0.280E-03    0.514E-04
DAV:  14    -0.190742152885E+02   -0.13185E-04   -0.91040E-07    72   0.228E-03    0.259E-04
DAV:  15    -0.190742190133E+02   -0.37248E-05   -0.32402E-08    36   0.588E-04
   3 F= -.19074219E+02 E0= -.19074219E+02  d E =-.108650E+01
 curvature:  -0.31 expect dE=-0.124E-02 dE for cont linesearch -0.586E-04
 ZBRENT: interpolating
 opt :   0.5816  next Energy=   -19.074287 (dE=-0.109E+01)
 bond charge predicted
       N       E                     dE             d eps       ncg     rms          rms(c)
DAV:   1    -0.190743036986E+02   -0.88410E-04   -0.44305E-03    36   0.317E-01    0.249E-02
DAV:   2    -0.190742886944E+02    0.15004E-04   -0.18908E-04    36   0.454E-02    0.121E-02
DAV:   3    -0.190742861958E+02    0.24986E-05   -0.14646E-05    72   0.157E-02
   4 F= -.19074286E+02 E0= -.19074286E+02  d E =-.108656E+01
 curvature:  -0.36 expect dE=-0.130E-02 dE for cont linesearch -0.130E-09
 trial: gam= 0.00092 g(F)=  0.364E-02 g(S)=  0.000E+00 ort =-0.382E-04 (trialstep = 0.916E+00)
 search vector abs. value=  0.364E-02
 bond charge predicted
       N       E                     dE             d eps       ncg     rms          rms(c)
DAV:   1    -0.190772742507E+02   -0.29856E-02   -0.11403E-02    36   0.476E-01    0.486E-02
DAV:   2    -0.190772492663E+02    0.24984E-04   -0.17490E-04    36   0.520E-02    0.267E-02
DAV:   3    -0.190772435409E+02    0.57254E-05   -0.40150E-05    72   0.216E-02
   5 F= -.19077244E+02 E0= -.19077244E+02  d E =-.295735E-02
 ZBRENT: can't locate minimum, use default step
 trial-energy change:   -0.002957  1 .order   -0.002962   -0.003336   -0.002589
 step:   3.6653(harm=  4.0911)  dis= 0.01425  next Energy=   -19.081733 (dE=-0.745E-02)
 bond charge predicted
       N       E                     dE             d eps       ncg     rms          rms(c)
DAV:   1    -0.190817467882E+02   -0.44975E-02   -0.10246E-01    36   0.143E+00    0.149E-01
DAV:   2    -0.190814875178E+02    0.25927E-03   -0.15221E-03    54   0.151E-01    0.810E-02
DAV:   3    -0.190814247712E+02    0.62747E-04   -0.61003E-04    36   0.790E-02    0.327E-02
DAV:   4    -0.190814212716E+02    0.34997E-05   -0.80021E-05    72   0.322E-02
   6 F= -.19081421E+02 E0= -.19081421E+02  d E =-.713508E-02
 curvature:  -2.01 expect dE=-0.534E-02 dE for cont linesearch -0.266E-04
 trial: gam= 0.64677 g(F)=  0.266E-02 g(S)=  0.000E+00 ort = 0.220E-03 (trialstep = 0.120E+01)
 search vector abs. value=  0.446E-02
 bond charge predicted
       N       E                     dE             d eps       ncg     rms          rms(c)
DAV:   1    -0.190835864295E+02   -0.21617E-02   -0.15572E-01    36   0.189E+00    0.149E-01
DAV:   2    -0.190831014234E+02    0.48501E-03   -0.56424E-03    54   0.265E-01    0.708E-02
DAV:   3    -0.190829907522E+02    0.11067E-03   -0.46395E-04    72   0.867E-02    0.291E-02
DAV:   4    -0.190829753180E+02    0.15434E-04   -0.88881E-05    36   0.414E-02    0.858E-03
DAV:   5    -0.190829955597E+02   -0.20242E-04   -0.11952E-05    36   0.141E-02    0.258E-03
DAV:   6    -0.190830116899E+02   -0.16130E-04   -0.12768E-06    36   0.418E-03    0.122E-03
DAV:   7    -0.190830406840E+02   -0.28994E-04   -0.39389E-06    36   0.565E-03    0.784E-04
DAV:   8    -0.190830661455E+02   -0.25462E-04   -0.51092E-06    36   0.604E-03    0.575E-04
DAV:   9    -0.190830769888E+02   -0.10843E-04   -0.14271E-06    72   0.335E-03    0.224E-04
DAV:  10    -0.190830804531E+02   -0.34643E-05   -0.10045E-07    36   0.128E-03
   7 F= -.19083080E+02 E0= -.19083080E+02  d E =-.165918E-02
 trial-energy change:   -0.001659  1 .order   -0.001529   -0.003348    0.000290
 step:   1.1174(harm=  1.1015)  dis= 0.00532  next Energy=   -19.083090 (dE=-0.167E-02)
 bond charge predicted
       N       E                     dE             d eps       ncg     rms          rms(c)
DAV:   1    -0.190830958241E+02   -0.18835E-04   -0.67623E-04    36   0.125E-01    0.957E-03
DAV:   2    -0.190830939040E+02    0.19201E-05   -0.25473E-05    72   0.178E-02
   8 F= -.19083094E+02 E0= -.19083094E+02  d E =-.167263E-02
 curvature:  -0.85 expect dE=-0.102E-02 dE for cont linesearch -0.474E-06
 trial: gam= 0.54958 g(F)=  0.119E-02 g(S)=  0.000E+00 ort =-0.498E-04 (trialstep = 0.118E+01)
 search vector abs. value=  0.248E-02
 bond charge predicted
       N       E                     dE             d eps       ncg     rms          rms(c)
DAV:   1    -0.190844357916E+02   -0.13400E-02   -0.10862E-02    36   0.438E-01    0.301E-02
DAV:   2    -0.190844414662E+02   -0.56746E-05   -0.10457E-04    36   0.483E-02    0.179E-02
DAV:   3    -0.190844386779E+02    0.27883E-05   -0.98250E-06    36   0.135E-02
   9 F= -.19084439E+02 E0= -.19084439E+02  d E =-.134477E-02
 ZBRENT: can't locate minimum, use default step
 trial-energy change:   -0.001345  1 .order   -0.001350   -0.001374   -0.001326
 step:   4.7240(harm= 34.1062)  dis= 0.00178  next Energy=   -19.102932 (dE=-0.198E-01)
 bond charge predicted
       N       E                     dE             d eps       ncg     rms          rms(c)
DAV:   1    -0.190881290067E+02   -0.36875E-02   -0.97948E-02    36   0.132E+00    0.934E-02
DAV:   2    -0.190881496863E+02   -0.20680E-04   -0.96189E-04    72   0.147E-01    0.557E-02
DAV:   3    -0.190881083982E+02    0.41288E-04   -0.85470E-05    36   0.394E-02    0.170E-02
DAV:   4    -0.190881025811E+02    0.58172E-05   -0.13110E-05    72   0.142E-02
  10 F= -.19088103E+02 E0= -.19088103E+02  d E =-.500868E-02
 curvature:  -7.42 expect dE=-0.121E-01 dE for cont linesearch -0.307E-02
 ZBRENT: increasing intervall
 opt :  11.8099  next Energy=   -19.094517 (dE=-0.114E-01)
 bond charge predicted
       N       E                     dE             d eps       ncg     rms          rms(c)
DAV:   1    -0.190942464087E+02   -0.61380E-02   -0.39497E-01    36   0.264E+00    0.187E-01
DAV:   2    -0.190943844130E+02   -0.13800E-03   -0.38789E-03    36   0.301E-01    0.112E-01
DAV:   3    -0.190942289927E+02    0.15542E-03   -0.63864E-04    72   0.101E-01    0.333E-02
DAV:   4    -0.190942621529E+02   -0.33160E-04   -0.18997E-04    36   0.465E-02    0.155E-02
DAV:   5    -0.190943034608E+02   -0.41308E-04   -0.67533E-05    72   0.241E-02    0.774E-03
DAV:   6    -0.190944047668E+02   -0.10131E-03   -0.18667E-05    36   0.155E-02    0.331E-03
DAV:   7    -0.190946061315E+02   -0.20136E-03   -0.49179E-05    36   0.221E-02    0.262E-03
DAV:   8    -0.190946907095E+02   -0.84578E-04   -0.11277E-05    36   0.941E-03    0.111E-03
DAV:   9    -0.190947709124E+02   -0.80203E-04   -0.13788E-05    36   0.101E-02    0.752E-04
DAV:  10    -0.190947964739E+02   -0.25562E-04   -0.10251E-06    72   0.457E-03    0.415E-04
DAV:  11    -0.190948086955E+02   -0.12222E-04   -0.56858E-07    36   0.309E-03    0.263E-04
DAV:  12    -0.190948129624E+02   -0.42669E-05   -0.30633E-07    36   0.176E-03
  11 F= -.19094813E+02 E0= -.19094813E+02  d E =-.117191E-01
 curvature: -15.49 expect dE=-0.442E-01 dE for cont linesearch -0.439E-02
 ZBRENT: increasing intervall
 opt :  25.9818  next Energy=   -19.104212 (dE=-0.211E-01)
 bond charge predicted
       N       E                     dE             d eps       ncg     rms          rms(c)
DAV:   1    -0.191026865672E+02   -0.78779E-02   -0.15929E+00    36   0.530E+00    0.375E-01
DAV:   2    -0.191035089528E+02   -0.82239E-03   -0.19228E-02    36   0.636E-01    0.224E-01
DAV:   3    -0.191033212618E+02    0.18769E-03   -0.15406E-03    72   0.164E-01    0.930E-02
DAV:   4    -0.191031920510E+02    0.12921E-03   -0.28744E-04    36   0.794E-02    0.198E-02
DAV:   5    -0.191033234560E+02   -0.13140E-03   -0.66520E-05    72   0.335E-02    0.956E-03
DAV:   6    -0.191035725059E+02   -0.24905E-03   -0.56328E-05    36   0.288E-02    0.486E-03
DAV:   7    -0.191037563431E+02   -0.18384E-03   -0.25343E-05    54   0.161E-02    0.284E-03
DAV:   8    -0.191040444430E+02   -0.28810E-03   -0.80970E-05    36   0.266E-02    0.173E-03
DAV:   9    -0.191041742006E+02   -0.12976E-03   -0.24159E-05    36   0.140E-02    0.983E-04
DAV:  10    -0.191042145298E+02   -0.40329E-04   -0.30426E-06    72   0.708E-03    0.585E-04
DAV:  11    -0.191042350085E+02   -0.20479E-04   -0.12642E-06    36   0.418E-03    0.330E-04
DAV:  12    -0.191042410786E+02   -0.60700E-05   -0.44786E-07    36   0.198E-03
  12 F= -.19104241E+02 E0= -.19104241E+02  d E =-.211472E-01
 curvature: -33.19 expect dE=-0.340E+00 dE for cont linesearch -0.319E-02
 ZBRENT: increasing intervall
 opt :  54.3257  next Energy=   -19.108168 (dE=-0.251E-01)
 bond charge predicted
       N       E                     dE             d eps       ncg     rms          rms(c)
DAV:   1    -0.190942221792E+02    0.10013E-01   -0.63997E+00    36   0.106E+01    0.757E-01
DAV:   2    -0.190996841835E+02   -0.54620E-02   -0.84842E-02    36   0.130E+00    0.444E-01
DAV:   3    -0.191002702684E+02   -0.58608E-03   -0.51714E-03    72   0.333E-01    0.200E-01
DAV:   4    -0.191004714230E+02   -0.20115E-03   -0.13563E-03    36   0.196E-01    0.402E-02
DAV:   5    -0.191007353985E+02   -0.26398E-03   -0.32152E-04    72   0.803E-02    0.159E-02
DAV:   6    -0.191010864351E+02   -0.35104E-03   -0.82217E-05    36   0.424E-02    0.875E-03
DAV:   7    -0.191016540867E+02   -0.56765E-03   -0.12561E-04    54   0.436E-02    0.496E-03
DAV:   8    -0.191022911583E+02   -0.63707E-03   -0.21791E-04    54   0.472E-02    0.354E-03
DAV:   9    -0.191025867495E+02   -0.29559E-03   -0.86984E-05    36   0.263E-02    0.178E-03
DAV:  10    -0.191026805840E+02   -0.93835E-04   -0.10211E-05    72   0.113E-02    0.130E-03
DAV:  11    -0.191027206206E+02   -0.40037E-04   -0.22796E-06    36   0.554E-03    0.555E-04
DAV:  12    -0.191027506514E+02   -0.30031E-04   -0.26869E-06    36   0.482E-03    0.341E-04
DAV:  13    -0.191027593015E+02   -0.86500E-05   -0.55330E-07    36   0.217E-03
  13 F= -.19102759E+02 E0= -.19102759E+02  d E =-.196654E-01
 curvature: -40.86 expect dE=-0.324E+01 dE for cont linesearch -0.115E-01
 ZBRENT: bracketing found
 ZBRENT: interpolating
 opt :  36.4302  next Energy=   -19.106794 (dE=-0.237E-01)
 bond charge predicted
       N       E                     dE             d eps       ncg     rms          rms(c)
DAV:   1    -0.191053702238E+02   -0.26196E-02   -0.25824E+00    36   0.666E+00    0.482E-01
DAV:   2    -0.191063783656E+02   -0.10081E-02   -0.33036E-02    72   0.822E-01    0.283E-01
DAV:   3    -0.191064691028E+02   -0.90737E-04   -0.16572E-03    54   0.181E-01    0.122E-01
DAV:   4    -0.191064926252E+02   -0.23522E-04   -0.51221E-04    72   0.117E-01    0.220E-02
DAV:   5    -0.191067169516E+02   -0.22433E-03   -0.11817E-04    36   0.492E-02    0.998E-03
DAV:   6    -0.191069867091E+02   -0.26976E-03   -0.61821E-05    36   0.333E-02    0.551E-03
DAV:   7    -0.191073552441E+02   -0.36853E-03   -0.10230E-04    36   0.358E-02    0.307E-03
DAV:   8    -0.191075763638E+02   -0.22112E-03   -0.57492E-05    36   0.228E-02    0.215E-03
DAV:   9    -0.191077141475E+02   -0.13778E-03   -0.33075E-05    36   0.156E-02    0.122E-03
DAV:  10    -0.191077547025E+02   -0.40555E-04   -0.29006E-06    72   0.592E-03    0.103E-03
DAV:  11    -0.191077743183E+02   -0.19616E-04   -0.10565E-06    36   0.389E-03    0.378E-04
DAV:  12    -0.191077888639E+02   -0.14546E-04   -0.12750E-06    36   0.367E-03    0.259E-04
DAV:  13    -0.191077926440E+02   -0.37801E-05   -0.24120E-07    36   0.173E-03
  14 F= -.19107793E+02 E0= -.19107793E+02  d E =-.246987E-01
 curvature:  -9.05 expect dE=-0.211E+00 dE for cont linesearch -0.979E-04
 trial: gam=16.31007 g(F)=  0.233E-01 g(S)=  0.000E+00 ort = 0.164E-03 (trialstep = 0.297E-01)
 search vector abs. value=  0.689E+00
 bond charge predicted
       N       E                     dE             d eps       ncg     rms          rms(c)
DAV:   1    -0.191085574092E+02   -0.76855E-03   -0.21922E-03    36   0.199E-01    0.135E-02
DAV:   2    -0.191085589945E+02   -0.15853E-05   -0.25806E-05    72   0.248E-02
  15 F= -.19108559E+02 E0= -.19108559E+02  d E =-.766351E-03
 ZBRENT: can't locate minimum, use default step
 trial-energy change:   -0.000766  1 .order   -0.000761   -0.000770   -0.000753
 step:   0.1186(harm=  1.3850)  dis= 0.00000  next Energy=   -19.125762 (dE=-0.180E-01)
 bond charge predicted
       N       E                     dE             d eps       ncg     rms          rms(c)
DAV:   1    -0.191107413375E+02   -0.21839E-02   -0.19643E-02    36   0.595E-01    0.431E-02
DAV:   2    -0.191107487684E+02   -0.74310E-05   -0.21222E-04    36   0.695E-02    0.266E-02
DAV:   3    -0.191107430195E+02    0.57490E-05   -0.19153E-05    36   0.202E-02
  16 F= -.19110743E+02 E0= -.19110743E+02  d E =-.295038E-02
 curvature:  -2.34 expect dE=-0.433E-01 dE for cont linesearch -0.193E-02
 ZBRENT: increasing intervall
 opt :   0.2966  next Energy=   -19.114727 (dE=-0.693E-02)
 bond charge predicted
       N       E                     dE             d eps       ncg     rms          rms(c)
DAV:   1    -0.191146706320E+02   -0.39219E-02   -0.78674E-02    36   0.119E+00    0.819E-02
DAV:   2    -0.191146996236E+02   -0.28992E-04   -0.83033E-04    72   0.139E-01    0.507E-02
DAV:   3    -0.191146817587E+02    0.17865E-04   -0.65638E-05    72   0.354E-02    0.160E-02
DAV:   4    -0.191146852448E+02   -0.34861E-05   -0.10124E-05    36   0.153E-02
  17 F= -.19114685E+02 E0= -.19114685E+02  d E =-.689260E-02
 curvature:  -4.81 expect dE=-0.612E-01 dE for cont linesearch -0.312E-02
 ZBRENT: increasing intervall
 opt :   0.6524  next Energy=   -19.121220 (dE=-0.134E-01)
 bond charge predicted
       N       E                     dE             d eps       ncg     rms          rms(c)
DAV:   1    -0.191209768891E+02   -0.62951E-02   -0.31352E-01    36   0.238E+00    0.164E-01
DAV:   2    -0.191211287440E+02   -0.15185E-03   -0.32445E-03    72   0.278E-01    0.101E-01
DAV:   3    -0.191210517172E+02    0.77027E-04   -0.29451E-04    72   0.744E-02    0.298E-02
DAV:   4    -0.191210610366E+02   -0.93193E-05   -0.43064E-05    36   0.291E-02
  18 F= -.19121061E+02 E0= -.19121061E+02  d E =-.132684E-01
 curvature: -10.09 expect dE=-0.496E-01 dE for cont linesearch -0.373E-02
 ZBRENT: increasing intervall
 opt :   1.3642  next Energy=   -19.128731 (dE=-0.209E-01)
 bond charge predicted
       N       E                     dE             d eps       ncg     rms          rms(c)
DAV:   1    -0.191280280682E+02   -0.69764E-02   -0.12344E+00    36   0.472E+00    0.329E-01
DAV:   2    -0.191287728422E+02   -0.74477E-03   -0.13133E-02    36   0.567E-01    0.202E-01
DAV:   3    -0.191286264337E+02    0.14641E-03   -0.13302E-03    72   0.163E-01    0.538E-02
DAV:   4    -0.191286727657E+02   -0.46332E-04   -0.12435E-04    36   0.519E-02    0.171E-02
DAV:   5    -0.191288382722E+02   -0.16551E-03   -0.62425E-05    36   0.316E-02    0.699E-03
DAV:   6    -0.191290368988E+02   -0.19863E-03   -0.27184E-05    36   0.200E-02    0.440E-03
DAV:   7    -0.191294274595E+02   -0.39056E-03   -0.12369E-04    36   0.360E-02    0.226E-03
DAV:   8    -0.191295802038E+02   -0.15274E-03   -0.28531E-05    54   0.151E-02    0.150E-03
DAV:   9    -0.191296635964E+02   -0.83393E-04   -0.12592E-05    36   0.101E-02    0.811E-04
DAV:  10    -0.191297008743E+02   -0.37278E-04   -0.22471E-06    72   0.557E-03    0.433E-04
DAV:  11    -0.191297114190E+02   -0.10545E-04   -0.36977E-07    36   0.218E-03    0.255E-04
DAV:  12    -0.191297197336E+02   -0.83147E-05   -0.98012E-07    36   0.279E-03
  19 F= -.19129720E+02 E0= -.19129720E+02  d E =-.219271E-01
 curvature: -20.78 expect dE=-0.164E-01 dE for cont linesearch -0.171E-02
 ZBRENT: increasing intervall
 opt :   2.7877  next Energy=   -19.128459 (dE=-0.207E-01)
 bond charge predicted
       N       E                     dE             d eps       ncg     rms          rms(c)
DAV:   1    -0.191232053471E+02    0.65061E-02   -0.47169E+00    36   0.927E+00    0.655E-01
DAV:   2    -0.191267481048E+02   -0.35428E-02   -0.51945E-02    36   0.111E+00    0.395E-01
DAV:   3    -0.191267829044E+02   -0.34800E-04   -0.56275E-03    72   0.329E-01    0.909E-02
DAV:   4    -0.191268532821E+02   -0.70378E-04   -0.45541E-04    36   0.955E-02    0.320E-02
DAV:   5    -0.191270810677E+02   -0.22779E-03   -0.19046E-04    72   0.584E-02    0.119E-02
DAV:   6    -0.191273171456E+02   -0.23608E-03   -0.35354E-05    36   0.264E-02    0.776E-03
DAV:   7    -0.191279154375E+02   -0.59829E-03   -0.19898E-04    36   0.531E-02    0.405E-03
DAV:   8    -0.191282543045E+02   -0.33887E-03   -0.87793E-05    36   0.278E-02    0.246E-03
DAV:   9    -0.191284559371E+02   -0.20163E-03   -0.53244E-05    54   0.200E-02    0.144E-03
DAV:  10    -0.191285339152E+02   -0.77978E-04   -0.61153E-06    36   0.845E-03    0.989E-04
DAV:  11    -0.191285561074E+02   -0.22192E-04   -0.93710E-07    72   0.370E-03    0.475E-04
DAV:  12    -0.191285806270E+02   -0.24520E-04   -0.25010E-06    36   0.467E-03    0.280E-04
DAV:  13    -0.191285832081E+02   -0.25811E-05   -0.97563E-08    72   0.101E-03
  20 F= -.19128583E+02 E0= -.19128583E+02  d E =-.207906E-01
 curvature:  15.32 expect dE= 0.158E+00 dE for cont linesearch  0.230E-02
 ZBRENT: bracketing found
 ZBRENT: interpolating
 opt :   1.9695  next Energy=   -19.132000 (dE=-0.242E-01)
 bond charge predicted
       N       E                     dE             d eps       ncg     rms          rms(c)
DAV:   1    -0.191304756171E+02   -0.18950E-02   -0.15862E+00    36   0.540E+00    0.376E-01
DAV:   2    -0.191316186300E+02   -0.11430E-02   -0.16220E-02    54   0.642E-01    0.228E-01
DAV:   3    -0.191313715631E+02    0.24707E-03   -0.24644E-03    54   0.212E-01    0.508E-02
DAV:   4    -0.191313797777E+02   -0.82146E-05   -0.24181E-04    36   0.627E-02    0.214E-02
DAV:   5    -0.191314943591E+02   -0.11458E-03   -0.84316E-05    72   0.356E-02    0.982E-03
DAV:   6    -0.191315903087E+02   -0.95950E-04   -0.17963E-05    36   0.153E-02    0.546E-03
DAV:   7    -0.191319018152E+02   -0.31151E-03   -0.92272E-05    36   0.340E-02    0.295E-03
DAV:   8    -0.191320508807E+02   -0.14907E-03   -0.24246E-05    36   0.142E-02    0.176E-03
DAV:   9    -0.191321923377E+02   -0.14146E-03   -0.31322E-05    36   0.151E-02    0.974E-04
DAV:  10    -0.191322331141E+02   -0.40776E-04   -0.31181E-06    72   0.661E-03    0.730E-04
DAV:  11    -0.191322517998E+02   -0.18686E-04   -0.10504E-06    36   0.428E-03    0.293E-04
DAV:  12    -0.191322612676E+02   -0.94678E-05   -0.77436E-07    72   0.271E-03
  21 F= -.19132261E+02 E0= -.19132261E+02  d E =-.244686E-01
 curvature: -15.16 expect dE=-0.538E-01 dE for cont linesearch -0.112E-04
 ZBRENT: interpolating
 opt :   2.0288  next Energy=   -19.132284 (dE=-0.245E-01)
 bond charge predicted
       N       E                     dE             d eps       ncg     rms          rms(c)
DAV:   1    -0.191322791830E+02   -0.27383E-04   -0.84063E-03    36   0.392E-01    0.273E-02
DAV:   2    -0.191322863487E+02   -0.71657E-05   -0.10084E-04    72   0.492E-02    0.167E-02
DAV:   3    -0.191322834031E+02    0.29456E-05   -0.10001E-05    36   0.126E-02
  22 F= -.19132283E+02 E0= -.19132283E+02  d E =-.244908E-01
 curvature: -30.47 expect dE=-0.122E+00 dE for cont linesearch -0.131E-06
 trial: gam= 0.55985 g(F)=  0.400E-02 g(S)=  0.000E+00 ort =-0.545E-04 (trialstep = 0.429E+00)
 search vector abs. value=  0.220E+00
 bond charge predicted
       N       E                     dE             d eps       ncg     rms          rms(c)
DAV:   1    -0.191332789681E+02   -0.99262E-03   -0.12759E-01    36   0.143E+00    0.113E-01
DAV:   2    -0.191332949758E+02   -0.16008E-04   -0.16516E-03    36   0.173E-01    0.683E-02
DAV:   3    -0.191332668880E+02    0.28088E-04   -0.17404E-04    72   0.449E-02    0.338E-02
DAV:   4    -0.191332296779E+02    0.37210E-04   -0.46213E-05    36   0.308E-02    0.431E-03
DAV:   5    -0.191332525386E+02   -0.22861E-04   -0.46951E-06    72   0.914E-03    0.299E-03
DAV:   6    -0.191333002435E+02   -0.47705E-04   -0.10849E-05    36   0.110E-02    0.169E-03
DAV:   7    -0.191333242170E+02   -0.23974E-04   -0.30207E-06    54   0.513E-03    0.100E-03
DAV:   8    -0.191333670616E+02   -0.42845E-04   -0.12590E-05    36   0.981E-03    0.483E-04
DAV:   9    -0.191333766900E+02   -0.96284E-05   -0.37742E-07    72   0.204E-03
  23 F= -.19133377E+02 E0= -.19133377E+02  d E =-.109329E-02
 trial-energy change:   -0.001093  1 .order   -0.001078   -0.001704   -0.000453
 step:   0.5850(harm=  0.5850)  dis= 0.00060  next Energy=   -19.133444 (dE=-0.116E-02)
 bond charge predicted
       N       E                     dE             d eps       ncg     rms          rms(c)
DAV:   1    -0.191334506230E+02   -0.83561E-04   -0.16705E-02    36   0.518E-01    0.405E-02
DAV:   2    -0.191334569749E+02   -0.63520E-05   -0.22115E-04    36   0.636E-02    0.245E-02
DAV:   3    -0.191334529566E+02    0.40184E-05   -0.22740E-05    36   0.164E-02
  24 F= -.19133453E+02 E0= -.19133453E+02  d E =-.116955E-02
 curvature: -16.22 expect dE=-0.116E-01 dE for cont linesearch -0.166E-05
 ZBRENT: interpolating
 opt :   0.5656  next Energy=   -19.133454 (dE=-0.117E-02)
 bond charge predicted
       N       E                     dE             d eps       ncg     rms          rms(c)
DAV:   1    -0.191334487408E+02    0.82341E-05   -0.27956E-04    36   0.661E-02    0.498E-03
DAV:   2    -0.191334523354E+02   -0.35946E-05   -0.42766E-06    72   0.943E-03
  25 F= -.19133452E+02 E0= -.19133452E+02  d E =-.116893E-02
 curvature: -14.21 expect dE=-0.103E-01 dE for cont linesearch -0.697E-07
 trial: gam=-0.14530 g(F)=  0.726E-03 g(S)=  0.000E+00 ort = 0.329E-04 (trialstep = 0.457E+00)
 search vector abs. value=  0.536E-02
 bond charge predicted
       N       E                     dE             d eps       ncg     rms          rms(c)
DAV:   1    -0.191337358271E+02   -0.28709E-03   -0.74632E-03    36   0.405E-01    0.293E-02
DAV:   2    -0.191337288519E+02    0.69752E-05   -0.20366E-04    36   0.569E-02    0.165E-02
DAV:   3    -0.191337284640E+02    0.38788E-06   -0.23637E-05    36   0.177E-02
  26 F= -.19133728E+02 E0= -.19133728E+02  d E =-.276129E-03
 trial-energy change:   -0.000276  1 .order   -0.000268   -0.000330   -0.000207
 step:   1.2243(harm=  1.2243)  dis= 0.00539  next Energy=   -19.133894 (dE=-0.442E-03)
 bond charge predicted
       N       E                     dE             d eps       ncg     rms          rms(c)
DAV:   1    -0.191339229020E+02   -0.19405E-03   -0.20900E-02    36   0.678E-01    0.499E-02
DAV:   2    -0.191339178787E+02    0.50233E-05   -0.34878E-04    36   0.878E-02    0.280E-02
DAV:   3    -0.191339035813E+02    0.14297E-04   -0.65644E-05    36   0.327E-02    0.733E-03
DAV:   4    -0.191339045622E+02   -0.98094E-06   -0.35859E-06    36   0.933E-03
  27 F= -.19133905E+02 E0= -.19133905E+02  d E =-.452227E-03
 curvature:  -4.55 expect dE=-0.462E-03 dE for cont linesearch -0.856E-06
 ZBRENT: extrapolating
 opt :   1.2823  next Energy=   -19.133905 (dE=-0.453E-03)
 bond charge predicted
       N       E                     dE             d eps       ncg     rms          rms(c)
DAV:   1    -0.191339077170E+02   -0.41358E-05   -0.12451E-04    36   0.524E-02    0.325E-03
DAV:   2    -0.191339092817E+02   -0.15646E-05   -0.24401E-06    36   0.709E-03
  28 F= -.19133909E+02 E0= -.19133909E+02  d E =-.456946E-03
 curvature:  -4.89 expect dE=-0.518E-03 dE for cont linesearch -0.238E-07
 trial: gam= 0.11276 g(F)=  0.106E-03 g(S)=  0.000E+00 ort = 0.510E-05 (trialstep = 0.622E+00)
 search vector abs. value=  0.175E-03
 bond charge predicted
       N       E                     dE             d eps       ncg     rms          rms(c)
DAV:   1    -0.191339634776E+02   -0.55761E-04   -0.27754E-04    36   0.674E-02    0.882E-03
DAV:   2    -0.191339636956E+02   -0.21806E-06   -0.13857E-05    36   0.124E-02
  29 F= -.19133964E+02 E0= -.19133964E+02  d E =-.544139E-04
 trial-energy change:   -0.000054  1 .order   -0.000052   -0.000066   -0.000037
 step:   1.4013(harm=  1.4013)  dis= 0.00172  next Energy=   -19.133984 (dE=-0.747E-04)
 bond charge predicted
       N       E                     dE             d eps       ncg     rms          rms(c)
DAV:   1    -0.191339895014E+02   -0.26024E-04   -0.43638E-04    36   0.836E-02    0.125E-02
DAV:   2    -0.191339891411E+02    0.36028E-06   -0.20656E-05    36   0.148E-02
  30 F= -.19133989E+02 E0= -.19133989E+02  d E =-.798594E-04
 curvature:  -1.15 expect dE=-0.493E-04 dE for cont linesearch -0.293E-07
 trial: gam= 0.39101 g(F)=  0.428E-04 g(S)=  0.000E+00 ort = 0.211E-05 (trialstep = 0.778E+00)
 search vector abs. value=  0.712E-04
 bond charge predicted
       N       E                     dE             d eps       ncg     rms          rms(c)
DAV:   1    -0.191340149728E+02   -0.25471E-04   -0.81538E-04    36   0.137E-01    0.117E-02
DAV:   2    -0.191340137518E+02    0.12210E-05   -0.20456E-05    36   0.176E-02
  31 F= -.19134014E+02 E0= -.19134014E+02  d E =-.246107E-04
 trial-energy change:   -0.000025  1 .order   -0.000025   -0.000034   -0.000017
 step:   1.5262(harm=  1.5262)  dis= 0.00094  next Energy=   -19.134022 (dE=-0.333E-04)
 bond charge predicted
       N       E                     dE             d eps       ncg     rms          rms(c)
DAV:   1    -0.191340208951E+02   -0.59223E-05   -0.71565E-04    36   0.129E-01    0.117E-02
DAV:   2    -0.191340189482E+02    0.19469E-05   -0.18974E-05    36   0.162E-02
  32 F= -.19134019E+02 E0= -.19134019E+02  d E =-.298071E-04
 curvature:  -1.25 expect dE=-0.134E-04 dE for cont linesearch -0.863E-07
 ZBRENT: interpolating
 opt :   1.4558  next Energy=   -19.134019 (dE=-0.299E-04)
 bond charge predicted
       N       E                     dE             d eps       ncg     rms          rms(c)
DAV:   1    -0.191340194206E+02    0.14745E-05   -0.13930E-05    36   0.165E-02    0.171E-03
DAV:   2    -0.191340198479E+02   -0.42726E-06   -0.33524E-07    54   0.285E-03
  33 F= -.19134020E+02 E0= -.19134020E+02  d E =-.307068E-04
 curvature:  -1.13 expect dE=-0.133E-04 dE for cont linesearch -0.141E-06
 ZBRENT: bisectioning
 opt :   1.1168  next Energy=   -19.134021 (dE=-0.323E-04)
 bond charge predicted
       N       E                     dE             d eps       ncg     rms          rms(c)
DAV:   1    -0.191340206716E+02   -0.12510E-05   -0.15237E-04    36   0.591E-02    0.434E-03
DAV:   2    -0.191340205216E+02    0.14993E-06   -0.36097E-06    72   0.747E-03
  34 F= -.19134021E+02 E0= -.19134021E+02  d E =-.313806E-04
 curvature: -13.08 expect dE=-0.104E-03 dE for cont linesearch -0.847E-05
 ZBRENT: interpolating
 opt :   1.3524  next Energy=   -19.134020 (dE=-0.309E-04)
 bond charge predicted
       N       E                     dE             d eps       ncg     rms          rms(c)
DAV:   1    -0.191340214012E+02   -0.72965E-06   -0.78994E-05    36   0.421E-02    0.251E-03
DAV:   2    -0.191340214396E+02   -0.38375E-07   -0.18224E-06    72   0.541E-03
  35 F= -.19134021E+02 E0= -.19134021E+02  d E =-.322985E-04
 curvature:  -0.24 expect dE=-0.226E-05 dE for cont linesearch -0.491E-08
 trial: gam= 0.21500 g(F)=  0.948E-05 g(S)=  0.000E+00 ort = 0.121E-05 (trialstep = 0.893E+00)
 search vector abs. value=  0.133E-04
 bond charge predicted
       N       E                     dE             d eps       ncg     rms          rms(c)
DAV:   1    -0.191340287974E+02   -0.73961E-05   -0.38445E-05    36   0.254E-02    0.287E-03
DAV:   2    -0.191340288506E+02   -0.53240E-07   -0.12460E-06    36   0.405E-03
  36 F= -.19134029E+02 E0= -.19134029E+02  d E =-.741100E-05
 trial-energy change:   -0.000007  1 .order   -0.000007   -0.000009   -0.000006
 step:   3.0668(harm=  3.0668)  dis= 0.00071  next Energy=   -19.134036 (dE=-0.149E-04)
 bond charge predicted
       N       E                     dE             d eps       ncg     rms          rms(c)
DAV:   1    -0.191340366189E+02   -0.78216E-05   -0.23113E-04    36   0.611E-02    0.738E-03
DAV:   2    -0.191340361272E+02    0.49176E-06   -0.76925E-06    36   0.966E-03
  37 F= -.19134036E+02 E0= -.19134036E+02  d E =-.146876E-04
 curvature:  -2.09 expect dE=-0.417E-04 dE for cont linesearch -0.101E-08
 trial: gam= 2.12857 g(F)=  0.199E-04 g(S)=  0.000E+00 ort = 0.801E-07 (trialstep = 0.219E+00)
 search vector abs. value=  0.805E-04
 bond charge predicted
       N       E                     dE             d eps       ncg     rms          rms(c)
DAV:   1    -0.191340402900E+02   -0.36711E-05   -0.22480E-05    36   0.226E-02    0.314E-03
DAV:   2    -0.191340403817E+02   -0.91739E-07   -0.52098E-07    36   0.323E-03
  38 F= -.19134040E+02 E0= -.19134040E+02  d E =-.425456E-05
 ZBRENT: can't locate minimum, use default step
 trial-energy change:   -0.000004  1 .order   -0.000004   -0.000004   -0.000004
 step:   0.8769(harm=  3.5036)  dis= 0.00021  next Energy=   -19.134071 (dE=-0.352E-04)
 bond charge predicted
       N       E                     dE             d eps       ncg     rms          rms(c)
DAV:   1    -0.191340512400E+02   -0.10950E-04   -0.19650E-04    36   0.654E-02    0.493E-03
DAV:   2    -0.191340512167E+02    0.23262E-07   -0.40313E-06    72   0.863E-03
  39 F= -.19134051E+02 E0= -.19134051E+02  d E =-.150895E-04
 curvature:  -2.53 expect dE=-0.334E-04 dE for cont linesearch -0.689E-05
 ZBRENT: increasing intervall
 opt :   2.1922  next Energy=   -19.134065 (dE=-0.293E-04)
 bond charge predicted
       N       E                     dE             d eps       ncg     rms          rms(c)
DAV:   1    -0.191340647518E+02   -0.13512E-04   -0.78302E-04    36   0.130E-01    0.103E-02
DAV:   2    -0.191340640396E+02    0.71216E-06   -0.15803E-05    54   0.168E-02
  40 F= -.19134064E+02 E0= -.19134064E+02  d E =-.279125E-04
 curvature:  -5.20 expect dE=-0.899E-04 dE for cont linesearch -0.276E-05
 ZBRENT: increasing intervall
 opt :   4.8228  next Energy=   -19.134059 (dE=-0.233E-04)
 bond charge predicted
       N       E                     dE             d eps       ncg     rms          rms(c)
DAV:   1    -0.191340587375E+02    0.60143E-05   -0.31302E-03    36   0.261E-01    0.206E-02
DAV:   2    -0.191340555544E+02    0.31831E-05   -0.58387E-05    36   0.334E-02
  41 F= -.19134056E+02 E0= -.19134056E+02  d E =-.194272E-04
 curvature:   8.69 expect dE= 0.654E-03 dE for cont linesearch  0.102E-04
 ZBRENT: bracketing found
 ZBRENT: interpolating
 opt :   3.2491  next Energy=   -19.134067 (dE=-0.314E-04)
 bond charge predicted
       N       E                     dE             d eps       ncg     rms          rms(c)
DAV:   1    -0.191340648517E+02   -0.61142E-05   -0.12156E-03    36   0.160E-01    0.877E-03
DAV:   2    -0.191340655341E+02   -0.68238E-06   -0.23511E-05    36   0.222E-02
  42 F= -.19134066E+02 E0= -.19134066E+02  d E =-.294069E-04
 curvature:  -2.94 expect dE=-0.126E-03 dE for cont linesearch -0.519E-07
 trial: gam= 2.27692 g(F)=  0.430E-04 g(S)=  0.000E+00 ort =-0.119E-05 (trialstep = 0.146E+00)
 search vector abs. value=  0.455E-03
 bond charge predicted
       N       E                     dE             d eps       ncg     rms          rms(c)
DAV:   1    -0.191340714913E+02   -0.66396E-05   -0.32700E-05    54   0.226E-02    0.128E-03
DAV:   2    -0.191340718588E+02   -0.36746E-06   -0.43092E-07    36   0.305E-03
  43 F= -.19134072E+02 E0= -.19134072E+02  d E =-.632463E-05
 ZBRENT: can't locate minimum, use default step
 trial-energy change:   -0.000006  1 .order   -0.000006   -0.000006   -0.000006
 step:   0.5841(harm=  2.7144)  dis= 0.00015  next Energy=   -19.134120 (dE=-0.547E-04)
 bond charge predicted
       N       E                     dE             d eps       ncg     rms          rms(c)
DAV:   1    -0.191340876224E+02   -0.16131E-04   -0.26776E-04    36   0.650E-02    0.497E-03
DAV:   2    -0.191340878086E+02   -0.18622E-06   -0.18972E-06    72   0.656E-03
  44 F= -.19134088E+02 E0= -.19134088E+02  d E =-.222745E-04
 curvature:  -4.78 expect dE=-0.169E-03 dE for cont linesearch -0.124E-04
 ZBRENT: increasing intervall
 opt :   1.4603  next Energy=   -19.134115 (dE=-0.490E-04)
 bond charge predicted
       N       E                     dE             d eps       ncg     rms          rms(c)
DAV:   1    -0.191341138399E+02   -0.26217E-04   -0.10686E-03    36   0.130E-01    0.104E-02
DAV:   2    -0.191341141923E+02   -0.35238E-06   -0.78829E-06    36   0.131E-02
  45 F= -.19134114E+02 E0= -.19134114E+02  d E =-.486581E-04
 curvature: -10.33 expect dE=-0.379E-03 dE for cont linesearch -0.166E-04
 ZBRENT: increasing intervall
 opt :   3.2127  next Energy=   -19.134149 (dE=-0.832E-04)
 bond charge predicted
       N       E                     dE             d eps       ncg     rms          rms(c)
DAV:   1    -0.191341459247E+02   -0.32085E-04   -0.42823E-03    36   0.261E-01    0.209E-02
DAV:   2    -0.191341473479E+02   -0.14232E-05   -0.31398E-05    36   0.262E-02
  46 F= -.19134147E+02 E0= -.19134147E+02  d E =-.818138E-04
 curvature: -21.55 expect dE=-0.128E-02 dE for cont linesearch -0.811E-05
 ZBRENT: increasing intervall
 opt :   6.7175  next Energy=   -19.134144 (dE=-0.789E-04)
 bond charge predicted
       N       E                     dE             d eps       ncg     rms          rms(c)
DAV:   1    -0.191341338823E+02    0.12042E-04   -0.17142E-02    36   0.521E-01    0.416E-02
DAV:   2    -0.191341387830E+02   -0.49007E-05   -0.12539E-04    72   0.523E-02    0.261E-02
DAV:   3    -0.191341313334E+02    0.74496E-05   -0.11935E-05    36   0.145E-02
  47 F= -.19134131E+02 E0= -.19134131E+02  d E =-.657992E-04
 curvature:   7.65 expect dE= 0.132E-02 dE for cont linesearch  0.971E-06
 trial: gam= 3.65604 g(F)=  0.172E-03 g(S)=  0.000E+00 ort =-0.760E-05 (trialstep = 0.107E+00)
 search vector abs. value=  0.620E-02
 bond charge predicted
       N       E                     dE             d eps       ncg     rms          rms(c)
DAV:   1    -0.191341471265E+02   -0.83435E-05   -0.23256E-04    72   0.635E-02    0.450E-03
DAV:   2    -0.191341521758E+02   -0.50494E-05   -0.21860E-06    36   0.735E-03
  48 F= -.19134152E+02 E0= -.19134152E+02  d E =-.208425E-04
 ZBRENT: can't locate minimum, use default step
 trial-energy change:   -0.000021  1 .order   -0.000015   -0.000015   -0.000015
 step:   0.4288(harm=  4.3790)  dis= 0.00019  next Energy=   -19.134448 (dE=-0.317E-03)
 bond charge predicted
       N       E                     dE             d eps       ncg     rms          rms(c)
DAV:   1    -0.191342002602E+02   -0.53134E-04   -0.20556E-03    36   0.186E-01    0.135E-02
DAV:   2    -0.191342030425E+02   -0.27823E-05   -0.20716E-05    54   0.220E-02
  49 F= -.19134203E+02 E0= -.19134203E+02  d E =-.717092E-04
 curvature: -13.60 expect dE=-0.180E-02 dE for cont linesearch -0.295E-04
 ZBRENT: increasing intervall
 opt :   1.0719  next Energy=   -19.134261 (dE=-0.130E-03)
 bond charge predicted
       N       E                     dE             d eps       ncg     rms          rms(c)
DAV:   1    -0.191342562284E+02   -0.55968E-04   -0.81984E-03    36   0.372E-01    0.289E-02
DAV:   2    -0.191342584428E+02   -0.22144E-05   -0.80337E-05    36   0.432E-02
  50 F= -.19134258E+02 E0= -.19134258E+02  d E =-.127109E-03
 curvature: -26.94 expect dE=-0.277E-02 dE for cont linesearch -0.178E-04
 ZBRENT: increasing intervall
 opt :   2.3583  next Energy=   -19.134274 (dE=-0.143E-03)
 bond charge predicted
       N       E                     dE             d eps       ncg     rms          rms(c)
DAV:   1    -0.191342409185E+02    0.15310E-04   -0.32806E-02    36   0.745E-01    0.577E-02
DAV:   2    -0.191342506386E+02   -0.97201E-05   -0.33459E-04    72   0.877E-02    0.354E-02
DAV:   3    -0.191342337409E+02    0.16898E-04   -0.22044E-05    72   0.208E-02    0.109E-02
DAV:   4    -0.191342375835E+02   -0.38426E-05   -0.52617E-06    36   0.103E-02
  51 F= -.19134238E+02 E0= -.19134238E+02  d E =-.106250E-03
 curvature: -23.45 expect dE=-0.523E-02 dE for cont linesearch -0.129E-05
 trial: gam= 1.22607 g(F)=  0.223E-03 g(S)=  0.000E+00 ort =-0.185E-04 (trialstep = 0.364E+00)
 search vector abs. value=  0.950E-02
 bond charge predicted
       N       E                     dE             d eps       ncg     rms          rms(c)
DAV:   1    -0.191343102585E+02   -0.76518E-04   -0.41638E-03    36   0.270E-01    0.191E-02
DAV:   2    -0.191343194061E+02   -0.91476E-05   -0.41049E-05    36   0.322E-02
  52 F= -.19134319E+02 E0= -.19134319E+02  d E =-.818226E-04
 trial-energy change:   -0.000082  1 .order   -0.000063   -0.000073   -0.000052
 step:   1.2908(harm=  1.2908)  dis= 0.00000  next Energy=   -19.134367 (dE=-0.129E-03)
 bond charge predicted
       N       E                     dE             d eps       ncg     rms          rms(c)
DAV:   1    -0.191343814092E+02   -0.71151E-04   -0.26843E-02    36   0.687E-01    0.501E-02
DAV:   2    -0.191343961310E+02   -0.14722E-04   -0.26004E-04    36   0.807E-02    0.307E-02
DAV:   3    -0.191343911504E+02    0.49806E-05   -0.24007E-05    72   0.229E-02
  53 F= -.19134391E+02 E0= -.19134391E+02  d E =-.153567E-03
 curvature: -30.57 expect dE=-0.112E-02 dE for cont linesearch -0.392E-05
 ZBRENT: extrapolating
 opt :   1.5875  next Energy=   -19.134396 (dE=-0.159E-03)
 bond charge predicted
       N       E                     dE             d eps       ncg     rms          rms(c)
DAV:   1    -0.191344016731E+02   -0.55421E-05   -0.27704E-03    36   0.221E-01    0.159E-02
DAV:   2    -0.191344112774E+02   -0.96043E-05   -0.25914E-05    36   0.260E-02
  54 F= -.19134411E+02 E0= -.19134411E+02  d E =-.173694E-03
 curvature: -40.36 expect dE=-0.117E-02 dE for cont linesearch -0.267E-08
 trial: gam=-0.06266 g(F)=  0.289E-04 g(S)=  0.000E+00 ort =-0.793E-06 (trialstep = 0.609E+00)
 search vector abs. value=  0.663E-04
 bond charge predicted
       N       E                     dE             d eps       ncg     rms          rms(c)
DAV:   1    -0.191344460924E+02   -0.44419E-04   -0.78596E-05    36   0.359E-02    0.284E-03
DAV:   2    -0.191344573741E+02   -0.11282E-04   -0.20427E-06    54   0.577E-03    0.181E-03
DAV:   3    -0.191344701020E+02   -0.12728E-04   -0.79503E-07    36   0.278E-03    0.982E-04
DAV:   4    -0.191344884294E+02   -0.18327E-04   -0.19840E-06    36   0.409E-03    0.548E-04
DAV:   5    -0.191345064655E+02   -0.18036E-04   -0.26607E-06    72   0.439E-03    0.296E-04
DAV:   6    -0.191345120574E+02   -0.55919E-05   -0.74367E-07    36   0.261E-03
  55 F= -.19134512E+02 E0= -.19134512E+02  d E =-.100780E-03
 ZBRENT: can't locate minimum, use default step
 trial-energy change:   -0.000101  1 .order   -0.000016   -0.000018   -0.000014
 step:   2.4343(harm=  3.0254)  dis= 0.00112  next Energy=   -19.134455 (dE=-0.439E-04)
 bond charge predicted
       N       E                     dE             d eps       ncg     rms          rms(c)
DAV:   1    -0.191345441911E+02   -0.37726E-04   -0.70524E-04    72   0.107E-01    0.107E-02
DAV:   2    -0.191345436025E+02    0.58864E-06   -0.12251E-05    36   0.130E-02
  56 F= -.19134544E+02 E0= -.19134544E+02  d E =-.132325E-03
 curvature:  -3.25 expect dE=-0.713E-04 dE for cont linesearch -0.309E-05
 ZBRENT: increasing intervall
 opt :   6.0857  next Energy=   -19.134517 (dE=-0.106E-03)
 bond charge predicted
       N       E                     dE             d eps       ncg     rms          rms(c)
DAV:   1    -0.191345225582E+02    0.21633E-04   -0.28014E-03    36   0.213E-01    0.236E-02
DAV:   2    -0.191345188046E+02    0.37536E-05   -0.52514E-05    36   0.285E-02
  57 F= -.19134519E+02 E0= -.19134519E+02  d E =-.107527E-03
 curvature:  28.05 expect dE= 0.386E-02 dE for cont linesearch  0.210E-03
 ZBRENT: bracketing found
 ZBRENT: interpolating
 opt :   3.3931  next Energy=   -19.134547 (dE=-0.136E-03)
 bond charge predicted
       N       E                     dE             d eps       ncg     rms          rms(c)
DAV:   1    -0.191345462681E+02   -0.23710E-04   -0.15539E-03    36   0.157E-01    0.105E-02
DAV:   2    -0.191345470212E+02   -0.75304E-06   -0.26086E-05    36   0.210E-02
  58 F= -.19134547E+02 E0= -.19134547E+02  d E =-.135744E-03
 curvature:  -0.51 expect dE=-0.158E-04 dE for cont linesearch -0.166E-08
 trial: gam= 1.07152 g(F)=  0.311E-04 g(S)=  0.000E+00 ort = 0.465E-06 (trialstep = 0.714E+00)
 search vector abs. value=  0.108E-03
 bond charge predicted
       N       E                     dE             d eps       ncg     rms          rms(c)
DAV:   1    -0.191345644162E+02   -0.18148E-04   -0.89808E-04    36   0.141E-01    0.966E-03
DAV:   2    -0.191345627093E+02    0.17069E-05   -0.27386E-05    36   0.194E-02
  59 F= -.19134563E+02 E0= -.19134563E+02  d E =-.156882E-04
 trial-energy change:   -0.000016  1 .order   -0.000014   -0.000023   -0.000006
 step:   0.9489(harm=  0.9489)  dis= 0.00050  next Energy=   -19.134562 (dE=-0.150E-04)
 reached required accuracy - stopping structural energy minimisation
 writing wavefunctions
