 running on   16 total cores
 distrk:  each k-point on   16 cores,    1 groups
 distr:  one band on    1 cores,   16 groups
 using from now: INCAR     
 vasp.5.4.1 24Jun15 (build Oct 26 2018 17:15:27) complex                        
  
 POSCAR found type information on POSCAR  Pt O  H 
 POSCAR found :  3 types and      14 ions
 scaLAPACK will be used

 ----------------------------------------------------------------------------- 
|                                                                             |
|           W    W    AA    RRRRR   N    N  II  N    N   GGGG   !!!           |
|           W    W   A  A   R    R  NN   N  II  NN   N  G    G  !!!           |
|           W    W  A    A  R    R  N N  N  II  N N  N  G       !!!           |
|           W WW W  AAAAAA  RRRRR   N  N N  II  N  N N  G  GGG   !            |
|           WW  WW  A    A  R   R   N   NN  II  N   NN  G    G                |
|           W    W  A    A  R    R  N    N  II  N    N   GGGG   !!!           |
|                                                                             |
|      For optimal performance we recommend to set                            |
|        NCORE= 4 - approx SQRT( number of cores)                             |
|      NCORE specifies how many cores store one orbital (NPAR=cpu/NCORE).     |
|      This setting can  greatly improve the performance of VASP for DFT.     |
|      The default, NPAR=number of cores might be grossly inefficient         |
|      on modern multi-core architectures or massively parallel machines.     |
|      Do your own testing !!!!                                               |
|      Unfortunately you need to use the default for GW and RPA calculations. |
|      (for HF NCORE is supported but not extensively tested yet)             |
|                                                                             |
 ----------------------------------------------------------------------------- 

 LDA part: xc-table for Ceperly-Alder, standard interpolation
 POSCAR, INCAR and KPOINTS ok, starting setup
 WARNING: small aliasing (wrap around) errors must be expected
 FFT: planning ...
 WAVECAR not read
 entering main loop
       N       E                     dE             d eps       ncg     rms          rms(c)
DAV:   1     0.130427382885E+04    0.13043E+04   -0.51299E+04  6560   0.133E+03
DAV:   2     0.683569259293E+02   -0.12359E+04   -0.11270E+04  6560   0.454E+02
DAV:   3    -0.780334348016E+02   -0.14639E+03   -0.13236E+03  9696   0.128E+02
DAV:   4    -0.849475899889E+02   -0.69142E+01   -0.66510E+01  7616   0.374E+01
DAV:   5    -0.851769441011E+02   -0.22935E+00   -0.22853E+00  8576   0.460E+00    0.159E+01
RMM:   6    -0.856353128542E+02   -0.45837E+00   -0.17552E+01  6601   0.205E+01    0.209E+01
RMM:   7    -0.111620325397E+03   -0.25985E+02   -0.19680E+01  7142   0.133E+01    0.285E+01
RMM:   8    -0.841205954926E+02    0.27500E+02   -0.64118E+00  6713   0.889E+00    0.150E+01
RMM:   9    -0.791607388931E+02    0.49599E+01   -0.28209E+00  6614   0.638E+00    0.571E+00
RMM:  10    -0.786184054520E+02    0.54233E+00   -0.82600E-01  6845   0.320E+00    0.440E+00
RMM:  11    -0.784107518973E+02    0.20765E+00   -0.20048E-01  6925   0.161E+00    0.279E+00
RMM:  12    -0.782678625855E+02    0.14289E+00   -0.15632E-01  7269   0.112E+00    0.175E+00
RMM:  13    -0.782390944576E+02    0.28768E-01   -0.82007E-02  6835   0.101E+00    0.158E+00
RMM:  14    -0.782445737769E+02   -0.54793E-02   -0.65983E-02  6591   0.104E+00    0.139E+00
RMM:  15    -0.782270589902E+02    0.17515E-01   -0.16509E-02  6583   0.580E-01    0.123E+00
RMM:  16    -0.782165424502E+02    0.10517E-01   -0.31586E-03  6638   0.247E-01    0.887E-01
RMM:  17    -0.782054062856E+02    0.11136E-01   -0.77498E-03  6717   0.328E-01    0.130E-01
RMM:  18    -0.782050005930E+02    0.40569E-03   -0.85344E-04  5899   0.113E-01    0.151E-01
RMM:  19    -0.782045993171E+02    0.40128E-03   -0.67765E-04  5567   0.110E-01    0.212E-01
RMM:  20    -0.782036235430E+02    0.97577E-03   -0.64148E-04  5211   0.954E-02    0.156E-01
RMM:  21    -0.782031086759E+02    0.51487E-03   -0.63171E-04  5085   0.880E-02    0.455E-02
RMM:  22    -0.782032928596E+02   -0.18418E-03   -0.32681E-04  4382   0.682E-02    0.111E-01
RMM:  23    -0.782030502209E+02    0.24264E-03   -0.21454E-04  4120   0.595E-02    0.345E-02
RMM:  24    -0.782031307312E+02   -0.80510E-04   -0.18170E-04  4074   0.333E-02
   1 F= -.78203131E+02 E0= -.78130251E+02  d E =-.782031E+02
 curvature:   0.00 expect dE= 0.000E+00 dE for cont linesearch  0.000E+00
 trial: gam= 0.00000 g(F)=  0.177E-01 g(S)=  0.000E+00 ort = 0.000E+00 (trialstep = 0.100E+01)
 search vector abs. value=  0.177E-01
 bond charge predicted
       N       E                     dE             d eps       ncg     rms          rms(c)
DAV:   1    -0.782179951271E+02   -0.14945E-01   -0.56392E-01  7680   0.230E+00    0.136E-01
RMM:   2    -0.782220702361E+02   -0.40751E-02   -0.10165E-02  6632   0.413E-01    0.470E-01
RMM:   3    -0.782198073422E+02    0.22629E-02   -0.13830E-03  6834   0.146E-01    0.263E-01
RMM:   4    -0.782188908561E+02    0.91649E-03   -0.48127E-04  5060   0.908E-02    0.829E-02
RMM:   5    -0.782188682523E+02    0.22604E-04   -0.13377E-04  3626   0.679E-02
   2 F= -.78218868E+02 E0= -.78146194E+02  d E =-.157375E-01
 ZBRENT: can't locate minimum, use default step
 trial-energy change:   -0.015738  1 .order   -0.015523   -0.017710   -0.013336
 step:   4.0000(harm=  4.0493)  dis= 0.01768  next Energy=   -78.238987 (dE=-0.359E-01)
 bond charge predicted
       N       E                     dE             d eps       ncg     rms          rms(c)
DAV:   1    -0.782327331207E+02   -0.13842E-01   -0.50906E+00  6992   0.693E+00    0.413E-01
RMM:   2    -0.782627704510E+02   -0.30037E-01   -0.90534E-02  6600   0.131E+00    0.124E+00
RMM:   3    -0.782471149515E+02    0.15655E-01   -0.13551E-02  7863   0.466E-01    0.785E-01
RMM:   4    -0.782400095079E+02    0.71054E-02   -0.45592E-03  6698   0.263E-01    0.332E-01
RMM:   5    -0.782389458096E+02    0.10637E-02   -0.13266E-03  6516   0.154E-01    0.228E-01
RMM:   6    -0.782387707480E+02    0.17506E-03   -0.15416E-03  6562   0.146E-01    0.187E-01
RMM:   7    -0.782386177237E+02    0.15302E-03   -0.16305E-03  6603   0.143E-01    0.128E-01
RMM:   8    -0.782383910584E+02    0.22667E-03   -0.30371E-04  4228   0.696E-02    0.791E-02
RMM:   9    -0.782383294818E+02    0.61577E-04   -0.93654E-05  3567   0.633E-02
   3 F= -.78238329E+02 E0= -.78166148E+02  d E =-.351988E-01
 curvature:  -2.02 expect dE=-0.901E-01 dE for cont linesearch -0.163E-03
 trial: gam= 2.58048 g(F)=  0.445E-01 g(S)=  0.000E+00 ort =-0.119E-02 (trialstep = 0.181E+00)
 search vector abs. value=  0.156E+00
 bond charge predicted
       N       E                     dE             d eps       ncg     rms          rms(c)
DAV:   1    -0.782452841473E+02   -0.68931E-02   -0.24179E-01  7552   0.156E+00    0.844E-02
RMM:   2    -0.782493476076E+02   -0.40635E-02   -0.44912E-03  6596   0.282E-01    0.505E-01
RMM:   3    -0.782458919217E+02    0.34557E-02   -0.71104E-04  5957   0.994E-02    0.120E-01
RMM:   4    -0.782457028875E+02    0.18903E-03   -0.18651E-04  3809   0.695E-02    0.722E-02
RMM:   5    -0.782456268982E+02    0.75989E-04   -0.83068E-05  3544   0.607E-02
   4 F= -.78245627E+02 E0= -.78173593E+02  d E =-.729742E-02
 ZBRENT: can't locate minimum, use default step
 trial-energy change:   -0.007297  1 .order   -0.007322   -0.007512   -0.007132
 step:   0.7253(harm=  3.5885)  dis= 0.01106  next Energy=   -78.312666 (dE=-0.743E-01)
 bond charge predicted
       N       E                     dE             d eps       ncg     rms          rms(c)
DAV:   1    -0.782633977189E+02   -0.17695E-01   -0.21985E+00  6720   0.469E+00    0.252E-01
RMM:   2    -0.782943265251E+02   -0.30929E-01   -0.38795E-02  6599   0.818E-01    0.138E+00
RMM:   3    -0.782686283794E+02    0.25698E-01   -0.62301E-03  7194   0.300E-01    0.367E-01
RMM:   4    -0.782669128098E+02    0.17156E-02   -0.18543E-03  6643   0.180E-01    0.217E-01
RMM:   5    -0.782661692219E+02    0.74359E-03   -0.50467E-04  5096   0.904E-02    0.951E-02
RMM:   6    -0.782660217362E+02    0.14749E-03   -0.46784E-04  5152   0.829E-02    0.516E-02
RMM:   7    -0.782660205790E+02    0.11572E-05   -0.24782E-04  3812   0.737E-02
   5 F= -.78266021E+02 E0= -.78194436E+02  d E =-.276911E-01
 curvature:  -1.99 expect dE=-0.766E-01 dE for cont linesearch -0.169E-01
 ZBRENT: increasing intervall
 opt :   1.8131  next Energy=   -78.302409 (dE=-0.641E-01)
 bond charge predicted
       N       E                     dE             d eps       ncg     rms          rms(c)
DAV:   1    -0.782904589139E+02   -0.24437E-01   -0.87590E+00  6560   0.937E+00    0.532E-01
RMM:   2    -0.785221380564E+02   -0.23168E+00   -0.18013E-01  6605   0.189E+00    0.390E+00
RMM:   3    -0.783118504310E+02    0.21029E+00   -0.34164E-02  7036   0.651E-01    0.662E-01
RMM:   4    -0.783048616814E+02    0.69887E-02   -0.82194E-03  6598   0.400E-01    0.431E-01
RMM:   5    -0.783020597471E+02    0.28019E-02   -0.21017E-03  6611   0.186E-01    0.193E-01
RMM:   6    -0.783015583491E+02    0.50140E-03   -0.16191E-03  6646   0.136E-01    0.130E-01
RMM:   7    -0.783016946964E+02   -0.13635E-03   -0.13326E-03  6658   0.133E-01    0.151E-01
RMM:   8    -0.783013421480E+02    0.35255E-03   -0.34338E-04  4359   0.770E-02    0.666E-02
RMM:   9    -0.783012934573E+02    0.48691E-04   -0.10057E-04  3577   0.650E-02
   6 F= -.78301293E+02 E0= -.78230893E+02  d E =-.629640E-01
 curvature:  -4.29 expect dE=-0.142E+00 dE for cont linesearch -0.255E-01
 ZBRENT: increasing intervall
 opt :   3.9889  next Energy=   -78.354765 (dE=-0.116E+00)
 bond charge predicted
       N       E                     dE             d eps       ncg     rms          rms(c)
DAV:   1    -0.782977992297E+02    0.35429E-02   -0.34991E+01  6560   0.188E+01    0.108E+00
RMM:   2    -0.791344750775E+02   -0.83668E+00   -0.82003E-01  6589   0.462E+00    0.718E+00
RMM:   3    -0.783978556953E+02    0.73662E+00   -0.16087E-01  7574   0.135E+00    0.140E+00
RMM:   4    -0.783649264079E+02    0.32929E-01   -0.31925E-02  6588   0.807E-01    0.862E-01
RMM:   5    -0.783536470047E+02    0.11279E-01   -0.77480E-03  6615   0.361E-01    0.426E-01
RMM:   6    -0.783512159535E+02    0.24311E-02   -0.75106E-03  6789   0.301E-01    0.242E-01
RMM:   7    -0.783534465102E+02   -0.22306E-02   -0.64157E-03  6790   0.297E-01    0.410E-01
RMM:   8    -0.783506798397E+02    0.27667E-02   -0.18147E-03  6638   0.165E-01    0.124E-01
RMM:   9    -0.783504527572E+02    0.22708E-03   -0.26203E-04  4121   0.731E-02    0.616E-02
RMM:  10    -0.783503874358E+02    0.65321E-04   -0.20751E-04  3730   0.760E-02
   7 F= -.78350387E+02 E0= -.78282438E+02  d E =-.112058E+00
 curvature:  -8.99 expect dE=-0.191E+00 dE for cont linesearch -0.153E-01
 ZBRENT: increasing intervall
 opt :   8.3404  next Energy=   -78.359655 (dE=-0.121E+00)
 bond charge predicted
       N       E                     dE             d eps       ncg     rms          rms(c)
DAV:   1    -0.780516969756E+02    0.29876E+00   -0.13982E+02  6560   0.379E+01    0.229E+00
RMM:   2    -0.815156300901E+02   -0.34639E+01   -0.44806E+00  6598   0.112E+01    0.122E+01
RMM:   3    -0.785746654625E+02    0.29410E+01   -0.89852E-01  7974   0.305E+00    0.306E+00
RMM:   4    -0.784127308129E+02    0.16193E+00   -0.14073E-01  6577   0.170E+00    0.171E+00
RMM:   5    -0.783710995928E+02    0.41631E-01   -0.30084E-02  6654   0.694E-01    0.109E+00
RMM:   6    -0.783558195518E+02    0.15280E-01   -0.30075E-02  6917   0.628E-01    0.636E-01
RMM:   7    -0.783579882883E+02   -0.21687E-02   -0.40344E-02  7098   0.703E-01    0.644E-01
RMM:   8    -0.783531381156E+02    0.48502E-02   -0.91628E-03  6787   0.396E-01    0.393E-01
RMM:   9    -0.783513743060E+02    0.17638E-02   -0.17366E-03  6549   0.167E-01    0.213E-01
RMM:  10    -0.783504994139E+02    0.87489E-03   -0.11763E-03  6520   0.132E-01    0.893E-02
RMM:  11    -0.783503077193E+02    0.19169E-03   -0.30380E-04  4233   0.720E-02    0.359E-02
RMM:  12    -0.783502978527E+02    0.98666E-05   -0.11226E-04  3684   0.598E-02
   8 F= -.78350298E+02 E0= -.78286395E+02  d E =-.111968E+00
 curvature:  -5.45 expect dE=-0.831E-01 dE for cont linesearch -0.108E-01
 ZBRENT: bracketing found
 ZBRENT: interpolating
 opt :   6.0836  next Energy=   -78.367467 (dE=-0.129E+00)
 bond charge predicted
       N       E                     dE             d eps       ncg     rms          rms(c)
DAV:   1    -0.783081696945E+02    0.42138E-01   -0.37733E+01  6656   0.195E+01    0.102E+00
RMM:   2    -0.788719875152E+02   -0.56382E+00   -0.76485E-01  6583   0.452E+00    0.557E+00
RMM:   3    -0.783903574446E+02    0.48163E+00   -0.15355E-01  8624   0.134E+00    0.106E+00
RMM:   4    -0.783820013782E+02    0.83561E-02   -0.22673E-02  6615   0.642E-01    0.854E-01
RMM:   5    -0.783719025849E+02    0.10099E-01   -0.65514E-03  6590   0.347E-01    0.459E-01
RMM:   6    -0.783702907129E+02    0.16119E-02   -0.88866E-03  6589   0.349E-01    0.346E-01
RMM:   7    -0.783695880627E+02    0.70265E-03   -0.77296E-03  6665   0.340E-01    0.258E-01
RMM:   8    -0.783688028413E+02    0.78522E-03   -0.23774E-03  6621   0.197E-01    0.139E-01
RMM:   9    -0.783684310347E+02    0.37181E-03   -0.36435E-04  4532   0.790E-02    0.484E-02
RMM:  10    -0.783683637280E+02    0.67307E-04   -0.19903E-04  3690   0.723E-02
   9 F= -.78368364E+02 E0= -.78302436E+02  d E =-.130034E+00
 curvature:  -8.65 expect dE=-0.127E+00 dE for cont linesearch -0.277E-04
 trial: gam=-0.06535 g(F)=  0.146E-01 g(S)=  0.000E+00 ort = 0.708E-03 (trialstep = 0.136E+01)
 search vector abs. value=  0.152E-01
 bond charge predicted
       N       E                     dE             d eps       ncg     rms          rms(c)
DAV:   1    -0.783790894348E+02   -0.10658E-01   -0.13021E+00  6992   0.379E+00    0.256E-01
RMM:   2    -0.784020885827E+02   -0.22999E-01   -0.31492E-02  6674   0.653E-01    0.118E+00
RMM:   3    -0.783837096080E+02    0.18379E-01   -0.48362E-03  6804   0.275E-01    0.453E-01
RMM:   4    -0.783812902503E+02    0.24194E-02   -0.21553E-03  6628   0.184E-01    0.246E-01
RMM:   5    -0.783803281095E+02    0.96214E-03   -0.45616E-04  4895   0.892E-02    0.872E-02
RMM:   6    -0.783803010557E+02    0.27054E-04   -0.30171E-04  4036   0.859E-02
  10 F= -.78380301E+02 E0= -.78314422E+02  d E =-.119373E-01
 trial-energy change:   -0.011937  1 .order   -0.012223   -0.019866   -0.004580
 step:   1.7698(harm=  1.7698)  dis= 0.00989  next Energy=   -78.381273 (dE=-0.129E-01)
 bond charge predicted
       N       E                     dE             d eps       ncg     rms          rms(c)
DAV:   1    -0.783807244284E+02   -0.39632E-03   -0.11478E-01  7408   0.115E+00    0.866E-02
RMM:   2    -0.783834672298E+02   -0.27428E-02   -0.33828E-03  6796   0.226E-01    0.397E-01
RMM:   3    -0.783814029268E+02    0.20643E-02   -0.56188E-04  5365   0.939E-02    0.197E-01
RMM:   4    -0.783808719751E+02    0.53095E-03   -0.32022E-04  4221   0.905E-02    0.589E-02
RMM:   5    -0.783808388528E+02    0.33122E-04   -0.83084E-05  3571   0.577E-02
  11 F= -.78380839E+02 E0= -.78315086E+02  d E =-.124751E-01
 curvature:  -0.92 expect dE=-0.801E-02 dE for cont linesearch -0.247E-07
 trial: gam= 0.59190 g(F)=  0.868E-02 g(S)=  0.000E+00 ort =-0.202E-04 (trialstep = 0.144E+01)
 search vector abs. value=  0.140E-01
 bond charge predicted
       N       E                     dE             d eps       ncg     rms          rms(c)
DAV:   1    -0.783905344941E+02   -0.96625E-02   -0.16047E+00  6848   0.387E+00    0.126E-01
RMM:   2    -0.783931038359E+02   -0.25693E-02   -0.21888E-02  6571   0.669E-01    0.197E-01
RMM:   3    -0.783941751520E+02   -0.10713E-02   -0.28116E-03  8241   0.215E-01    0.323E-01
RMM:   4    -0.783928121725E+02    0.13630E-02   -0.40798E-04  4727   0.817E-02    0.118E-01
RMM:   5    -0.783926406318E+02    0.17154E-03   -0.12771E-04  3650   0.653E-02    0.711E-02
RMM:   6    -0.783925987642E+02    0.41868E-04   -0.17334E-04  3611   0.577E-02
  12 F= -.78392599E+02 E0= -.78327099E+02  d E =-.117599E-01
 ZBRENT: can't locate minimum, use default step
 trial-energy change:   -0.011760  1 .order   -0.011689   -0.012511   -0.010867
 step:   5.7735(harm= 10.9877)  dis= 0.03422  next Energy=   -78.428458 (dE=-0.476E-01)
 bond charge predicted
       N       E                     dE             d eps       ncg     rms          rms(c)
DAV:   1    -0.783918553598E+02    0.78527E-03   -0.14404E+01  6576   0.117E+01    0.425E-01
RMM:   2    -0.784151383258E+02   -0.23283E-01   -0.24267E-01  6569   0.259E+00    0.396E-01
RMM:   3    -0.784466330623E+02   -0.31495E-01   -0.43882E-02  9041   0.646E-01    0.146E+00
RMM:   4    -0.784183523121E+02    0.28281E-01   -0.50998E-03  6882   0.262E-01    0.422E-01
RMM:   5    -0.784155610316E+02    0.27913E-02   -0.16006E-03  6511   0.166E-01    0.224E-01
RMM:   6    -0.784151839297E+02    0.37710E-03   -0.92987E-04  6486   0.105E-01    0.198E-01
RMM:   7    -0.784147667756E+02    0.41715E-03   -0.21804E-03  6632   0.160E-01    0.154E-01
RMM:   8    -0.784147109812E+02    0.55794E-04   -0.21253E-03  6833   0.174E-01    0.100E-01
RMM:   9    -0.784145576530E+02    0.15333E-03   -0.21214E-04  3718   0.681E-02    0.551E-02
RMM:  10    -0.784144712393E+02    0.86414E-04   -0.13318E-04  3553   0.701E-02
  13 F= -.78414471E+02 E0= -.78349710E+02  d E =-.336324E-01
 curvature:  -6.22 expect dE=-0.165E-01 dE for cont linesearch -0.369E-02
 ZBRENT: increasing intervall
 opt :  14.4337  next Energy=   -78.399159 (dE=-0.183E-01)
 bond charge predicted
       N       E                     dE             d eps       ncg     rms          rms(c)
DAV:   1    -0.782697901022E+02    0.14477E+00   -0.57487E+01  6560   0.235E+01    0.997E-01
RMM:   2    -0.784174567890E+02   -0.14767E+00   -0.13952E+00  6564   0.656E+00    0.154E+00
RMM:   3    -0.785958579736E+02   -0.17840E+00   -0.27804E-01  8393   0.157E+00    0.339E+00
RMM:   4    -0.784186836664E+02    0.17717E+00   -0.39667E-02  6783   0.841E-01    0.991E-01
RMM:   5    -0.784035889308E+02    0.15095E-01   -0.93162E-03  6688   0.385E-01    0.508E-01
RMM:   6    -0.784012627979E+02    0.23261E-02   -0.33807E-03  6778   0.207E-01    0.440E-01
RMM:   7    -0.783987061366E+02    0.25567E-02   -0.95981E-03  6636   0.349E-01    0.355E-01
RMM:   8    -0.783981765726E+02    0.52956E-03   -0.10988E-02  6839   0.393E-01    0.256E-01
RMM:   9    -0.783973186141E+02    0.85796E-03   -0.22019E-03  7441   0.178E-01    0.104E-01
RMM:  10    -0.783970142517E+02    0.30436E-03   -0.25566E-04  3898   0.609E-02    0.630E-02
RMM:  11    -0.783969093817E+02    0.10487E-03   -0.47380E-04  5288   0.802E-02    0.386E-02
RMM:  12    -0.783969045643E+02    0.48175E-05   -0.10647E-04  3604   0.518E-02
  14 F= -.78396905E+02 E0= -.78333506E+02  d E =-.160657E-01
 curvature:  25.81 expect dE= 0.459E+00 dE for cont linesearch  0.933E-01
 ZBRENT: bracketing found
 ZBRENT: interpolating
 opt :   8.2704  next Energy=   -78.418067 (dE=-0.372E-01)
 bond charge predicted
       N       E                     dE             d eps       ncg     rms          rms(c)
DAV:   1    -0.783629736435E+02    0.33936E-01   -0.29105E+01  6608   0.166E+01    0.652E-01
RMM:   2    -0.784251119296E+02   -0.62138E-01   -0.59707E-01  6569   0.429E+00    0.921E-01
RMM:   3    -0.785048667867E+02   -0.79755E-01   -0.10973E-01  7740   0.992E-01    0.229E+00
RMM:   4    -0.784235274103E+02    0.81339E-01   -0.17987E-02  6743   0.611E-01    0.465E-01
RMM:   5    -0.784203752149E+02    0.31522E-02   -0.27608E-03  6789   0.204E-01    0.334E-01
RMM:   6    -0.784199210063E+02    0.45421E-03   -0.15241E-03  6822   0.136E-01    0.336E-01
RMM:   7    -0.784178989557E+02    0.20221E-02   -0.70672E-03  6570   0.283E-01    0.125E-01
RMM:   8    -0.784180574662E+02   -0.15851E-03   -0.26219E-03  6867   0.222E-01    0.969E-02
RMM:   9    -0.784179285586E+02    0.12891E-03   -0.29079E-04  4072   0.744E-02    0.747E-02
RMM:  10    -0.784177890189E+02    0.13954E-03   -0.19138E-04  3601   0.811E-02    0.472E-02
RMM:  11    -0.784177299228E+02    0.59096E-04   -0.18890E-04  3585   0.534E-02
  15 F= -.78417730E+02 E0= -.78353387E+02  d E =-.368911E-01
 curvature:  -0.99 expect dE=-0.375E-02 dE for cont linesearch -0.126E-05
 trial: gam= 0.44705 g(F)=  0.377E-02 g(S)=  0.000E+00 ort = 0.133E-03 (trialstep = 0.281E+01)
 search vector abs. value=  0.668E-02
 bond charge predicted
       N       E                     dE             d eps       ncg     rms          rms(c)
DAV:   1    -0.784244755134E+02   -0.66865E-02   -0.25384E+00  6928   0.543E+00    0.246E-01
RMM:   2    -0.784475362821E+02   -0.23061E-01   -0.47081E-02  6623   0.909E-01    0.113E+00
RMM:   3    -0.784301114538E+02    0.17425E-01   -0.57490E-03  7563   0.290E-01    0.327E-01
RMM:   4    -0.784290386979E+02    0.10728E-02   -0.14001E-03  6614   0.151E-01    0.226E-01
RMM:   5    -0.784282516552E+02    0.78704E-03   -0.35731E-04  4400   0.807E-02    0.961E-02
RMM:   6    -0.784282296455E+02    0.22010E-04   -0.63166E-04  5752   0.103E-01
  16 F= -.78428230E+02 E0= -.78364125E+02  d E =-.104997E-01
 ZBRENT: can't locate minimum, use default step
 trial-energy change:   -0.010500  1 .order   -0.010725   -0.010748   -0.010702
 step:  11.2351(harm=657.4026)  dis= 0.03882  next Energy=   -79.675528 (dE=-0.126E+01)
 bond charge predicted
       N       E                     dE             d eps       ncg     rms          rms(c)
DAV:   1    -0.784180674376E+02    0.10184E-01   -0.22739E+01  6560   0.163E+01    0.803E-01
RMM:   2    -0.786586796036E+02   -0.24061E+00   -0.48566E-01  6601   0.323E+00    0.372E+00
RMM:   3    -0.784812344282E+02    0.17745E+00   -0.68813E-02  7858   0.911E-01    0.120E+00
RMM:   4    -0.784633289254E+02    0.17906E-01   -0.15805E-02  6602   0.532E-01    0.696E-01
RMM:   5    -0.784562947535E+02    0.70342E-02   -0.39757E-03  6581   0.259E-01    0.315E-01
RMM:   6    -0.784566826499E+02   -0.38790E-03   -0.47680E-03  6582   0.266E-01    0.332E-01
RMM:   7    -0.784553851553E+02    0.12975E-02   -0.41077E-03  6613   0.235E-01    0.178E-01
RMM:   8    -0.784550126245E+02    0.37253E-03   -0.12508E-03  6526   0.141E-01    0.951E-02
RMM:   9    -0.784548630011E+02    0.14962E-03   -0.13708E-04  3730   0.514E-02    0.530E-02
RMM:  10    -0.784548108009E+02    0.52200E-04   -0.70049E-05  3614   0.461E-02
  17 F= -.78454811E+02 E0= -.78391790E+02  d E =-.370809E-01
 curvature: -14.68 expect dE=-0.191E+00 dE for cont linesearch -0.142E-01
 ZBRENT: increasing intervall
 opt :  28.0878  next Energy=   -78.476394 (dE=-0.587E-01)
 bond charge predicted
       N       E                     dE             d eps       ncg     rms          rms(c)
DAV:   1    -0.782930780079E+02    0.16178E+00   -0.90356E+01  6560   0.326E+01    0.180E+00
RMM:   2    -0.794263777445E+02   -0.11333E+01   -0.25033E+00  6595   0.769E+00    0.765E+00
RMM:   3    -0.786494812433E+02    0.77690E+00   -0.39111E-01  8011   0.209E+00    0.298E+00
RMM:   4    -0.785056253941E+02    0.14386E+00   -0.78571E-02  6597   0.118E+00    0.131E+00
RMM:   5    -0.784825036236E+02    0.23122E-01   -0.17970E-02  6604   0.533E-01    0.751E-01
RMM:   6    -0.784774286196E+02    0.50750E-02   -0.14097E-02  6624   0.452E-01    0.552E-01
RMM:   7    -0.784766743473E+02    0.75427E-03   -0.18667E-02  6592   0.515E-01    0.448E-01
RMM:   8    -0.784754488750E+02    0.12255E-02   -0.89017E-03  6873   0.356E-01    0.328E-01
RMM:   9    -0.784738768040E+02    0.15721E-02   -0.16177E-03  6558   0.153E-01    0.155E-01
RMM:  10    -0.784734506771E+02    0.42613E-03   -0.31782E-04  4267   0.775E-02    0.618E-02
RMM:  11    -0.784733641591E+02    0.86518E-04   -0.26073E-04  3828   0.785E-02
  18 F= -.78473364E+02 E0= -.78412111E+02  d E =-.556342E-01
 curvature: -22.25 expect dE=-0.152E+01 dE for cont linesearch -0.333E-02
 ZBRENT: bracketing found
 ZBRENT: interpolating
 opt :  23.3328  next Energy=   -78.475743 (dE=-0.580E-01)
 bond charge predicted
       N       E                     dE             d eps       ncg     rms          rms(c)
DAV:   1    -0.784639846483E+02    0.94660E-02   -0.72229E+00  6624   0.918E+00    0.442E-01
RMM:   2    -0.785121815134E+02   -0.48197E-01   -0.13266E-01  6595   0.158E+00    0.153E+00
RMM:   3    -0.784810316179E+02    0.31150E-01   -0.16695E-02  7698   0.520E-01    0.653E-01
RMM:   4    -0.784777185306E+02    0.33131E-02   -0.47116E-03  6738   0.263E-01    0.443E-01
RMM:   5    -0.784748131302E+02    0.29054E-02   -0.13686E-03  6521   0.151E-01    0.181E-01
RMM:   6    -0.784744377129E+02    0.37542E-03   -0.15292E-03  6541   0.133E-01    0.971E-02
RMM:   7    -0.784745211169E+02   -0.83404E-04   -0.84483E-04  6333   0.111E-01
  19 F= -.78474521E+02 E0= -.78412729E+02  d E =-.567912E-01
 curvature: -15.88 expect dE=-0.754E+00 dE for cont linesearch -0.183E-03
 trial: gam=12.37810 g(F)=  0.475E-01 g(S)=  0.000E+00 ort = 0.278E-03 (trialstep = 0.428E-01)
 search vector abs. value=  0.108E+01
 bond charge predicted
       N       E                     dE             d eps       ncg     rms          rms(c)
DAV:   1    -0.784764679080E+02   -0.20302E-02   -0.86055E-02  7456   0.102E+00    0.507E-02
RMM:   2    -0.784789199639E+02   -0.24521E-02   -0.19733E-03  6666   0.188E-01    0.381E-01
RMM:   3    -0.784766536353E+02    0.22663E-02   -0.28429E-04  4153   0.736E-02    0.598E-02
RMM:   4    -0.784766019067E+02    0.51729E-04   -0.99868E-05  3615   0.587E-02
  20 F= -.78476602E+02 E0= -.78414960E+02  d E =-.208079E-02
 ZBRENT: can't locate minimum, use default step
 trial-energy change:   -0.002081  1 .order   -0.002207   -0.002183   -0.002232
 step:   0.1714(harm=  0.1714)  dis= 0.00780  next Energy=   -78.483642 (dE=-0.912E-02)
 bond charge predicted
       N       E                     dE             d eps       ncg     rms          rms(c)
DAV:   1    -0.784821095650E+02   -0.54559E-02   -0.75850E-01  6592   0.297E+00    0.141E-01
RMM:   2    -0.784895204343E+02   -0.74109E-02   -0.13301E-02  6604   0.493E-01    0.636E-01
RMM:   3    -0.784835981924E+02    0.59222E-02   -0.16927E-03  7116   0.162E-01    0.155E-01
RMM:   4    -0.784832798586E+02    0.31833E-03   -0.21882E-04  3939   0.641E-02    0.912E-02
RMM:   5    -0.784832334341E+02    0.46424E-04   -0.15840E-04  3687   0.772E-02
  21 F= -.78483233E+02 E0= -.78421734E+02  d E =-.871232E-02
 curvature:  -2.75 expect dE=-0.126E+00 dE for cont linesearch -0.637E-02
 ZBRENT: increasing intervall
 opt :   0.4285  next Energy=   -78.495556 (dE=-0.210E-01)
 bond charge predicted
       N       E                     dE             d eps       ncg     rms          rms(c)
DAV:   1    -0.784905508427E+02   -0.72710E-02   -0.30180E+00  6560   0.593E+00    0.276E-01
RMM:   2    -0.785036213679E+02   -0.13071E-01   -0.52616E-02  6582   0.982E-01    0.752E-01
RMM:   3    -0.785001562355E+02    0.34651E-02   -0.66231E-03  8050   0.309E-01    0.548E-01
RMM:   4    -0.784963032016E+02    0.38530E-02   -0.21198E-03  6751   0.176E-01    0.271E-01
RMM:   5    -0.784951596938E+02    0.11435E-02   -0.54084E-04  5358   0.950E-02    0.112E-01
RMM:   6    -0.784953384654E+02   -0.17877E-03   -0.70489E-04  6233   0.113E-01    0.147E-01
RMM:   7    -0.784950162721E+02    0.32219E-03   -0.53953E-04  5603   0.917E-02    0.358E-02
RMM:   8    -0.784950016261E+02    0.14646E-04   -0.79763E-05  3567   0.498E-02
  22 F= -.78495002E+02 E0= -.78433810E+02  d E =-.204805E-01
 curvature:  -5.31 expect dE=-0.232E+00 dE for cont linesearch -0.965E-02
 ZBRENT: increasing intervall
 opt :   0.9426  next Energy=   -78.514805 (dE=-0.403E-01)
 bond charge predicted
       N       E                     dE             d eps       ncg     rms          rms(c)
DAV:   1    -0.784947482981E+02    0.26797E-03   -0.12047E+01  6560   0.118E+01    0.564E-01
RMM:   2    -0.785758529361E+02   -0.81105E-01   -0.23238E-01  6591   0.220E+00    0.203E+00
RMM:   3    -0.785274085392E+02    0.48444E-01   -0.31547E-02  8096   0.620E-01    0.874E-01
RMM:   4    -0.785181401985E+02    0.92683E-02   -0.62864E-03  6647   0.324E-01    0.490E-01
RMM:   5    -0.785146696814E+02    0.34705E-02   -0.19129E-03  6563   0.176E-01    0.217E-01
RMM:   6    -0.785143031481E+02    0.36653E-03   -0.25426E-03  6617   0.179E-01    0.148E-01
RMM:   7    -0.785142647358E+02    0.38412E-04   -0.15444E-03  6632   0.144E-01    0.121E-01
RMM:   8    -0.785140466492E+02    0.21809E-03   -0.25249E-04  3893   0.682E-02    0.645E-02
RMM:   9    -0.785139994395E+02    0.47210E-04   -0.97699E-05  3568   0.704E-02
  23 F= -.78513999E+02 E0= -.78453354E+02  d E =-.394783E-01
 curvature: -10.90 expect dE=-0.452E+00 dE for cont linesearch -0.948E-02
 ZBRENT: increasing intervall
 opt :   1.9709  next Energy=   -78.531456 (dE=-0.569E-01)
 bond charge predicted
       N       E                     dE             d eps       ncg     rms          rms(c)
DAV:   1    -0.784360902614E+02    0.77956E-01   -0.47887E+01  6560   0.236E+01    0.121E+00
RMM:   2    -0.788050005661E+02   -0.36891E+00   -0.11203E+00  6582   0.522E+00    0.438E+00
RMM:   3    -0.786093763924E+02    0.19562E+00   -0.17215E-01  8221   0.138E+00    0.211E+00
RMM:   4    -0.785431071577E+02    0.66269E-01   -0.31441E-02  6628   0.739E-01    0.958E-01
RMM:   5    -0.785302700104E+02    0.12837E-01   -0.83303E-03  6585   0.366E-01    0.493E-01
RMM:   6    -0.785284577403E+02    0.18123E-02   -0.81677E-03  6597   0.343E-01    0.375E-01
RMM:   7    -0.785281149629E+02    0.34278E-03   -0.91915E-03  6590   0.362E-01    0.305E-01
RMM:   8    -0.785272390928E+02    0.87587E-03   -0.30727E-03  6858   0.210E-01    0.196E-01
RMM:   9    -0.785267064575E+02    0.53264E-03   -0.47891E-04  5168   0.863E-02    0.103E-01
RMM:  10    -0.785265344740E+02    0.17198E-03   -0.12813E-04  3637   0.592E-02    0.465E-02
RMM:  11    -0.785265010905E+02    0.33384E-04   -0.13262E-04  3675   0.539E-02
  24 F= -.78526501E+02 E0= -.78466581E+02  d E =-.519800E-01
 curvature: -20.07 expect dE=-0.909E+00 dE for cont linesearch -0.918E-03
 trial: gam= 0.02374 g(F)=  0.453E-01 g(S)=  0.000E+00 ort =-0.702E-02 (trialstep = 0.428E+00)
 search vector abs. value=  0.456E-01
 bond charge predicted
       N       E                     dE             d eps       ncg     rms          rms(c)
DAV:   1    -0.785432922356E+02   -0.16758E-01   -0.24502E-01  7408   0.167E+00    0.140E-01
RMM:   2    -0.785476083723E+02   -0.43161E-02   -0.72486E-03  6725   0.291E-01    0.503E-01
RMM:   3    -0.785445970658E+02    0.30113E-02   -0.11217E-03  6453   0.128E-01    0.269E-01
RMM:   4    -0.785438005547E+02    0.79651E-03   -0.54736E-04  5314   0.935E-02    0.142E-01
RMM:   5    -0.785434720013E+02    0.32855E-03   -0.14600E-04  3648   0.698E-02    0.413E-02
RMM:   6    -0.785434704128E+02    0.15885E-05   -0.90434E-05  3656   0.487E-02
  25 F= -.78543470E+02 E0= -.78483554E+02  d E =-.169693E-01
 ZBRENT: can't locate minimum, use default step
 trial-energy change:   -0.016969  1 .order   -0.017008   -0.019340   -0.014677
 step:   1.7139(harm=  1.7771)  dis= 0.02017  next Energy=   -78.566608 (dE=-0.401E-01)
 bond charge predicted
       N       E                     dE             d eps       ncg     rms          rms(c)
DAV:   1    -0.785627283424E+02   -0.19256E-01   -0.22194E+00  6784   0.503E+00    0.431E-01
RMM:   2    -0.786301634925E+02   -0.67435E-01   -0.68560E-02  6773   0.869E-01    0.200E+00
RMM:   3    -0.785702596993E+02    0.59904E-01   -0.12008E-02  6772   0.411E-01    0.644E-01
RMM:   4    -0.785667635481E+02    0.34962E-02   -0.54045E-03  6665   0.280E-01    0.430E-01
RMM:   5    -0.785638571220E+02    0.29064E-02   -0.13048E-03  6544   0.148E-01    0.140E-01
RMM:   6    -0.785639621177E+02   -0.10500E-03   -0.79526E-04  6323   0.119E-01    0.150E-01
RMM:   7    -0.785636095837E+02    0.35253E-03   -0.63385E-04  5784   0.104E-01    0.566E-02
RMM:   8    -0.785635969694E+02    0.12614E-04   -0.11824E-04  3665   0.583E-02
  26 F= -.78563597E+02 E0= -.78503600E+02  d E =-.370959E-01
 curvature:  -0.90 expect dE=-0.149E-01 dE for cont linesearch -0.332E-03
 trial: gam= 0.45829 g(F)=  0.166E-01 g(S)=  0.000E+00 ort =-0.411E-02 (trialstep = 0.686E+00)
 search vector abs. value=  0.224E-01
 bond charge predicted
       N       E                     dE             d eps       ncg     rms          rms(c)
DAV:   1    -0.785727029164E+02   -0.90933E-02   -0.46149E-01  7264   0.219E+00    0.849E-02
RMM:   2    -0.785766392797E+02   -0.39364E-02   -0.75550E-03  6579   0.380E-01    0.461E-01
RMM:   3    -0.785735389772E+02    0.31003E-02   -0.97733E-04  6519   0.125E-01    0.105E-01
RMM:   4    -0.785733912179E+02    0.14776E-03   -0.14147E-04  3680   0.611E-02    0.620E-02
RMM:   5    -0.785733527698E+02    0.38448E-04   -0.59677E-05  3562   0.522E-02
  27 F= -.78573353E+02 E0= -.78513336E+02  d E =-.975580E-02
 ZBRENT: can't locate minimum, use default step
 trial-energy change:   -0.009756  1 .order   -0.009686   -0.010092   -0.009280
 step:   2.7422(harm=  8.5135)  dis= 0.01186  next Energy=   -78.626263 (dE=-0.627E-01)
 bond charge predicted
       N       E                     dE             d eps       ncg     rms          rms(c)
DAV:   1    -0.785934327675E+02   -0.20042E-01   -0.41691E+00  6560   0.658E+00    0.246E-01
RMM:   2    -0.786007223170E+02   -0.72895E-02   -0.65302E-02  6572   0.121E+00    0.342E-01
RMM:   3    -0.786093904029E+02   -0.86681E-02   -0.93758E-03  8924   0.334E-01    0.790E-01
RMM:   4    -0.785997231201E+02    0.96673E-02   -0.18445E-03  6779   0.156E-01    0.164E-01
RMM:   5    -0.785993818604E+02    0.34126E-03   -0.29778E-04  4204   0.766E-02    0.122E-01
RMM:   6    -0.785992742938E+02    0.10757E-03   -0.32792E-04  4215   0.866E-02    0.111E-01
RMM:   7    -0.785991981374E+02    0.76156E-04   -0.10361E-03  6431   0.129E-01    0.723E-02
RMM:   8    -0.785991876904E+02    0.10447E-04   -0.30790E-04  4067   0.724E-02
  28 F= -.78599188E+02 E0= -.78539207E+02  d E =-.355907E-01
 curvature:  -2.96 expect dE=-0.405E-01 dE for cont linesearch -0.183E-01
 ZBRENT: increasing intervall
 opt :   6.8554  next Energy=   -78.640445 (dE=-0.768E-01)
 bond charge predicted
       N       E                     dE             d eps       ncg     rms          rms(c)
DAV:   1    -0.786090093061E+02   -0.98112E-02   -0.16600E+01  6560   0.132E+01    0.558E-01
RMM:   2    -0.786517500638E+02   -0.42741E-01   -0.31722E-01  6570   0.291E+00    0.107E+00
RMM:   3    -0.786794114231E+02   -0.27661E-01   -0.53105E-02  8483   0.729E-01    0.159E+00
RMM:   4    -0.786383587327E+02    0.41053E-01   -0.10245E-02  6620   0.424E-01    0.314E-01
RMM:   5    -0.786369638607E+02    0.13949E-02   -0.17514E-03  6914   0.150E-01    0.244E-01
RMM:   6    -0.786365911742E+02    0.37269E-03   -0.74011E-04  6292   0.108E-01    0.204E-01
RMM:   7    -0.786359710646E+02    0.62011E-03   -0.28592E-03  6604   0.181E-01    0.108E-01
RMM:   8    -0.786361131910E+02   -0.14213E-03   -0.12415E-03  6703   0.137E-01    0.116E-01
RMM:   9    -0.786358797464E+02    0.23344E-03   -0.18725E-04  3686   0.629E-02    0.413E-02
RMM:  10    -0.786358347151E+02    0.45031E-04   -0.90375E-05  3584   0.587E-02
  29 F= -.78635835E+02 E0= -.78575815E+02  d E =-.722377E-01
 curvature:  -6.66 expect dE=-0.579E-01 dE for cont linesearch -0.131E-01
 ZBRENT: increasing intervall
 opt :  15.0819  next Energy=   -78.648060 (dE=-0.845E-01)
 bond charge predicted
       N       E                     dE             d eps       ncg     rms          rms(c)
DAV:   1    -0.785055997979E+02    0.13028E+00   -0.66394E+01  6560   0.266E+01    0.129E+00
RMM:   2    -0.787776824041E+02   -0.27208E+00   -0.17229E+00  6574   0.704E+00    0.306E+00
RMM:   3    -0.788598850027E+02   -0.82203E-01   -0.31430E-01  8295   0.173E+00    0.346E+00
RMM:   4    -0.786653261906E+02    0.19456E+00   -0.61360E-02  6584   0.110E+00    0.893E-01
RMM:   5    -0.786538716318E+02    0.11455E-01   -0.11387E-02  6949   0.386E-01    0.593E-01
RMM:   6    -0.786503136882E+02    0.35579E-02   -0.30312E-03  6601   0.220E-01    0.436E-01
RMM:   7    -0.786474374426E+02    0.28762E-02   -0.11417E-02  6648   0.372E-01    0.294E-01
RMM:   8    -0.786479679969E+02   -0.53055E-03   -0.87633E-03  6888   0.354E-01    0.292E-01
RMM:   9    -0.786465821012E+02    0.13859E-02   -0.21433E-03  6771   0.187E-01    0.898E-02
RMM:  10    -0.786463556599E+02    0.22644E-03   -0.25794E-04  4002   0.606E-02    0.512E-02
RMM:  11    -0.786463011369E+02    0.54523E-04   -0.15592E-04  3642   0.650E-02
  30 F= -.78646301E+02 E0= -.78586328E+02  d E =-.827042E-01
 curvature:  -6.22 expect dE=-0.640E-01 dE for cont linesearch -0.497E-02
 ZBRENT: bracketing found
 ZBRENT: interpolating
 opt :  11.8784  next Energy=   -78.653079 (dE=-0.895E-01)
 bond charge predicted
       N       E                     dE             d eps       ncg     rms          rms(c)
DAV:   1    -0.786383542310E+02    0.80014E-02   -0.10103E+01  6560   0.103E+01    0.403E-01
RMM:   2    -0.786551388117E+02   -0.16785E-01   -0.16576E-01  6574   0.200E+00    0.421E-01
RMM:   3    -0.786892683353E+02   -0.34130E-01   -0.27350E-02  8940   0.562E-01    0.154E+00
RMM:   4    -0.786542601848E+02    0.35008E-01   -0.52784E-03  6774   0.269E-01    0.240E-01
RMM:   5    -0.786533463534E+02    0.91383E-03   -0.90883E-04  6316   0.122E-01    0.187E-01
RMM:   6    -0.786530295999E+02    0.31675E-03   -0.47914E-04  5272   0.847E-02    0.146E-01
RMM:   7    -0.786527807202E+02    0.24888E-03   -0.17543E-03  6640   0.149E-01    0.953E-02
RMM:   8    -0.786527176675E+02    0.63053E-04   -0.68372E-04  6307   0.948E-02
  31 F= -.78652718E+02 E0= -.78592745E+02  d E =-.891207E-01
 curvature:  -8.48 expect dE=-0.608E-01 dE for cont linesearch -0.271E-04
 trial: gam= 0.33431 g(F)=  0.717E-02 g(S)=  0.000E+00 ort =-0.268E-03 (trialstep = 0.292E+01)
 search vector abs. value=  0.950E-02
 bond charge predicted
       N       E                     dE             d eps       ncg     rms          rms(c)
DAV:   1    -0.786659356546E+02   -0.13155E-01   -0.26010E+00  6560   0.547E+00    0.300E-01
RMM:   2    -0.786890692078E+02   -0.23134E-01   -0.49967E-02  6611   0.891E-01    0.112E+00
RMM:   3    -0.786732161341E+02    0.15853E-01   -0.67674E-03  7068   0.331E-01    0.506E-01
RMM:   4    -0.786700056571E+02    0.32105E-02   -0.21681E-03  6670   0.185E-01    0.264E-01
RMM:   5    -0.786689264859E+02    0.10792E-02   -0.52981E-04  5468   0.989E-02    0.109E-01
RMM:   6    -0.786687892972E+02    0.13719E-03   -0.36751E-04  4467   0.847E-02    0.773E-02
RMM:   7    -0.786687554876E+02    0.33810E-04   -0.51323E-04  5686   0.107E-01
  32 F= -.78668755E+02 E0= -.78608844E+02  d E =-.160378E-01
 trial-energy change:   -0.016038  1 .order   -0.016219   -0.020709   -0.011729
 step:   6.7438(harm=  6.7438)  dis= 0.02548  next Energy=   -78.676598 (dE=-0.239E-01)
 bond charge predicted
       N       E                     dE             d eps       ncg     rms          rms(c)
DAV:   1    -0.786692941300E+02   -0.50483E-03   -0.44350E+00  6560   0.715E+00    0.404E-01
RMM:   2    -0.786967048124E+02   -0.27411E-01   -0.86738E-02  6606   0.119E+00    0.117E+00
RMM:   3    -0.786864547346E+02    0.10250E-01   -0.11833E-02  7342   0.422E-01    0.844E-01
RMM:   4    -0.786765718455E+02    0.98829E-02   -0.42243E-03  6681   0.255E-01    0.342E-01
RMM:   5    -0.786747715794E+02    0.18003E-02   -0.10324E-03  6455   0.133E-01    0.148E-01
RMM:   6    -0.786745143555E+02    0.25722E-03   -0.52106E-04  5441   0.920E-02    0.979E-02
RMM:   7    -0.786744244576E+02    0.89898E-04   -0.75965E-04  6393   0.111E-01
  33 F= -.78674424E+02 E0= -.78614555E+02  d E =-.217068E-01
 curvature:  -4.52 expect dE=-0.129E+00 dE for cont linesearch -0.277E-03
 trial: gam= 3.97378 g(F)=  0.285E-01 g(S)=  0.000E+00 ort =-0.763E-03 (trialstep = 0.203E+00)
 search vector abs. value=  0.172E+00
 bond charge predicted
       N       E                     dE             d eps       ncg     rms          rms(c)
DAV:   1    -0.786789112966E+02   -0.43969E-02   -0.22480E-01  7296   0.159E+00    0.716E-02
RMM:   2    -0.786806657351E+02   -0.17544E-02   -0.40782E-03  6610   0.259E-01    0.287E-01
RMM:   3    -0.786794918176E+02    0.11739E-02   -0.46358E-04  5035   0.105E-01    0.134E-01
RMM:   4    -0.786792465487E+02    0.24527E-03   -0.21567E-04  3727   0.756E-02    0.500E-02
RMM:   5    -0.786792192623E+02    0.27286E-04   -0.59962E-05  3540   0.550E-02
  34 F= -.78679219E+02 E0= -.78619346E+02  d E =-.479480E-02
 ZBRENT: can't locate minimum, use default step
 trial-energy change:   -0.004795  1 .order   -0.004888   -0.005170   -0.004607
 step:   0.8128(harm=  1.8660)  dis= 0.00935  next Energy=   -78.698163 (dE=-0.237E-01)
 bond charge predicted
       N       E                     dE             d eps       ncg     rms          rms(c)
DAV:   1    -0.786889356126E+02   -0.96891E-02   -0.20487E+00  6704   0.476E+00    0.166E-01
RMM:   2    -0.786919324027E+02   -0.29968E-02   -0.31261E-02  6569   0.770E-01    0.125E-01
RMM:   3    -0.786959933847E+02   -0.40610E-02   -0.31148E-03  7957   0.241E-01    0.506E-01
RMM:   4    -0.786920459560E+02    0.39474E-02   -0.58553E-04  5515   0.838E-02    0.124E-01
RMM:   5    -0.786918776219E+02    0.16833E-03   -0.20191E-04  3816   0.733E-02    0.928E-02
RMM:   6    -0.786917966163E+02    0.81006E-04   -0.58119E-04  5983   0.957E-02
  35 F= -.78691797E+02 E0= -.78631860E+02  d E =-.173722E-01
 curvature:  -3.79 expect dE=-0.921E-01 dE for cont linesearch -0.768E-02
 ZBRENT: increasing intervall
 opt :   2.0319  next Energy=   -78.709767 (dE=-0.353E-01)
 bond charge predicted
       N       E                     dE             d eps       ncg     rms          rms(c)
DAV:   1    -0.786958707602E+02   -0.39931E-02   -0.81648E+00  6560   0.951E+00    0.350E-01
RMM:   2    -0.787110284210E+02   -0.15158E-01   -0.13345E-01  6569   0.168E+00    0.471E-01
RMM:   3    -0.787244984766E+02   -0.13470E-01   -0.17453E-02  8805   0.473E-01    0.100E+00
RMM:   4    -0.787093840193E+02    0.15114E-01   -0.28743E-03  6719   0.197E-01    0.278E-01
RMM:   5    -0.787082261448E+02    0.11579E-02   -0.91670E-04  6406   0.115E-01    0.170E-01
RMM:   6    -0.787084304612E+02   -0.20432E-03   -0.14740E-03  6655   0.141E-01    0.214E-01
RMM:   7    -0.787078634184E+02    0.56704E-03   -0.16779E-03  6652   0.144E-01    0.907E-02
RMM:   8    -0.787077583996E+02    0.10502E-03   -0.28660E-04  4128   0.785E-02    0.504E-02
RMM:   9    -0.787077272073E+02    0.31192E-04   -0.95455E-05  3611   0.678E-02
  36 F= -.78707727E+02 E0= -.78647669E+02  d E =-.333027E-01
 curvature:  -8.85 expect dE=-0.193E+00 dE for cont linesearch -0.398E-02
 ZBRENT: increasing intervall
 opt :   4.4702  next Energy=   -78.705044 (dE=-0.306E-01)
 bond charge predicted
       N       E                     dE             d eps       ncg     rms          rms(c)
DAV:   1    -0.786487112688E+02    0.59047E-01   -0.32607E+01  6560   0.191E+01    0.782E-01
RMM:   2    -0.787469217058E+02   -0.98210E-01   -0.62842E-01  6564   0.409E+00    0.179E+00
RMM:   3    -0.787589373037E+02   -0.12016E-01   -0.96535E-02  8233   0.100E+00    0.178E+00
RMM:   4    -0.787073689245E+02    0.51568E-01   -0.11159E-02  6630   0.460E-01    0.442E-01
RMM:   5    -0.787051304337E+02    0.22385E-02   -0.36695E-03  6663   0.243E-01    0.356E-01
RMM:   6    -0.787053043547E+02   -0.17392E-03   -0.67496E-03  6762   0.297E-01    0.385E-01
RMM:   7    -0.787036445710E+02    0.16598E-02   -0.55519E-03  6702   0.276E-01    0.190E-01
RMM:   8    -0.787034155819E+02    0.22899E-03   -0.15011E-03  6580   0.157E-01    0.142E-01
RMM:   9    -0.787030394705E+02    0.37611E-03   -0.22144E-04  3797   0.638E-02    0.638E-02
RMM:  10    -0.787030067700E+02    0.32701E-04   -0.16186E-04  3685   0.640E-02
  37 F= -.78703007E+02 E0= -.78642347E+02  d E =-.285823E-01
 curvature:   5.97 expect dE= 0.230E+00 dE for cont linesearch  0.580E-02
 ZBRENT: bracketing found
 ZBRENT: interpolating
 opt :   3.0191  next Energy=   -78.712072 (dE=-0.376E-01)
 bond charge predicted
       N       E                     dE             d eps       ncg     rms          rms(c)
DAV:   1    -0.786947523997E+02    0.82871E-02   -0.11594E+01  6560   0.114E+01    0.414E-01
RMM:   2    -0.787128703763E+02   -0.18118E-01   -0.19207E-01  6566   0.212E+00    0.275E-01
RMM:   3    -0.787143156831E+02   -0.14453E-02   -0.20829E-02  8932   0.512E-01    0.332E-01
RMM:   4    -0.787132589454E+02    0.10567E-02   -0.15666E-03  6676   0.167E-01    0.236E-01
RMM:   5    -0.787153000224E+02   -0.20411E-02   -0.70912E-04  5824   0.876E-02    0.450E-01
RMM:   6    -0.787128696969E+02    0.24303E-02   -0.92333E-04  6562   0.111E-01    0.193E-01
RMM:   7    -0.787126209894E+02    0.24871E-03   -0.24780E-03  6664   0.172E-01    0.153E-01
RMM:   8    -0.787123606301E+02    0.26036E-03   -0.80559E-04  6376   0.110E-01    0.948E-02
RMM:   9    -0.787121873100E+02    0.17332E-03   -0.10622E-04  3673   0.456E-02    0.399E-02
RMM:  10    -0.787121473484E+02    0.39962E-04   -0.66867E-05  3598   0.447E-02
  38 F= -.78712147E+02 E0= -.78651886E+02  d E =-.377229E-01
 curvature:  -4.47 expect dE=-0.115E+00 dE for cont linesearch -0.280E-05
 trial: gam= 0.05721 g(F)=  0.257E-01 g(S)=  0.000E+00 ort = 0.328E-03 (trialstep = 0.766E+00)
 search vector abs. value=  0.263E-01
 bond charge predicted
       N       E                     dE             d eps       ncg     rms          rms(c)
DAV:   1    -0.787264855029E+02   -0.14298E-01   -0.55754E-01  7104   0.251E+00    0.244E-01
RMM:   2    -0.787498280846E+02   -0.23343E-01   -0.18693E-02  6804   0.420E-01    0.119E+00
RMM:   3    -0.787289550898E+02    0.20873E-01   -0.40474E-03  6763   0.230E-01    0.378E-01
RMM:   4    -0.787274937372E+02    0.14614E-02   -0.17255E-03  6665   0.158E-01    0.231E-01
RMM:   5    -0.787266157707E+02    0.87797E-03   -0.36722E-04  4463   0.830E-02    0.669E-02
RMM:   6    -0.787266013902E+02    0.14381E-04   -0.18642E-04  3740   0.742E-02
  39 F= -.78726601E+02 E0= -.78666284E+02  d E =-.144540E-01
 trial-energy change:   -0.014454  1 .order   -0.014485   -0.019688   -0.009281
 step:   1.4499(harm=  1.4499)  dis= 0.01355  next Energy=   -78.730771 (dE=-0.186E-01)
 bond charge predicted
       N       E                     dE             d eps       ncg     rms          rms(c)
DAV:   1    -0.787299100655E+02   -0.32943E-02   -0.44014E-01  6816   0.224E+00    0.225E-01
RMM:   2    -0.787503184219E+02   -0.20408E-01   -0.15475E-02  6868   0.385E-01    0.110E+00
RMM:   3    -0.787318078091E+02    0.18511E-01   -0.34464E-03  6775   0.210E-01    0.342E-01
RMM:   4    -0.787305732743E+02    0.12345E-02   -0.15772E-03  6576   0.161E-01    0.200E-01
RMM:   5    -0.787299716686E+02    0.60161E-03   -0.28873E-04  4070   0.788E-02    0.725E-02
RMM:   6    -0.787299637473E+02    0.79214E-05   -0.15967E-04  3704   0.723E-02
  40 F= -.78729964E+02 E0= -.78669554E+02  d E =-.178164E-01
 curvature:  -0.74 expect dE=-0.236E-02 dE for cont linesearch -0.777E-04
 trial: gam= 0.19875 g(F)=  0.318E-02 g(S)=  0.000E+00 ort =-0.166E-02 (trialstep = 0.903E+00)
 search vector abs. value=  0.356E-02
 bond charge predicted
       N       E                     dE             d eps       ncg     rms          rms(c)
DAV:   1    -0.787321701685E+02   -0.21985E-02   -0.10007E-01  7664   0.101E+00    0.452E-02
RMM:   2    -0.787323606014E+02   -0.19043E-03   -0.17917E-03  6368   0.189E-01    0.466E-02
RMM:   3    -0.787325582210E+02   -0.19762E-03   -0.18313E-04  3611   0.663E-02    0.121E-01
RMM:   4    -0.787323679290E+02    0.19029E-03   -0.75199E-05  3538   0.533E-02    0.511E-02
RMM:   5    -0.787323366801E+02    0.31249E-04   -0.25375E-05  3448   0.265E-02
  41 F= -.78732337E+02 E0= -.78671864E+02  d E =-.237293E-02
 ZBRENT: can't locate minimum, use default step
 trial-energy change:   -0.002373  1 .order   -0.002440   -0.002577   -0.002303
 step:   3.6124(harm=  8.4944)  dis= 0.00638  next Energy=   -78.742084 (dE=-0.121E-01)
 bond charge predicted
       N       E                     dE             d eps       ncg     rms          rms(c)
DAV:   1    -0.787375048655E+02   -0.51369E-02   -0.90486E-01  6624   0.299E+00    0.126E-01
RMM:   2    -0.787408875789E+02   -0.33827E-02   -0.13736E-02  6586   0.514E-01    0.368E-01
RMM:   3    -0.787392064782E+02    0.16811E-02   -0.16736E-03  7401   0.172E-01    0.159E-01
RMM:   4    -0.787388365497E+02    0.36993E-03   -0.21793E-04  3733   0.661E-02    0.704E-02
RMM:   5    -0.787388391579E+02   -0.26083E-05   -0.15881E-04  3647   0.787E-02
  42 F= -.78738839E+02 E0= -.78678224E+02  d E =-.887541E-02
 curvature:  -3.11 expect dE=-0.740E-02 dE for cont linesearch -0.382E-02
 ZBRENT: increasing intervall
 opt :   9.0309  next Energy=   -78.747698 (dE=-0.177E-01)
 bond charge predicted
       N       E                     dE             d eps       ncg     rms          rms(c)
DAV:   1    -0.787421416579E+02   -0.33051E-02   -0.36116E+00  6560   0.598E+00    0.254E-01
RMM:   2    -0.787616422770E+02   -0.19501E-01   -0.57754E-02  6585   0.110E+00    0.928E-01
RMM:   3    -0.787488342429E+02    0.12808E-01   -0.85815E-03  8733   0.357E-01    0.276E-01
RMM:   4    -0.787482350404E+02    0.59920E-03   -0.12643E-03  6688   0.131E-01    0.213E-01
RMM:   5    -0.787476631084E+02    0.57193E-03   -0.39525E-04  4614   0.831E-02    0.118E-01
RMM:   6    -0.787477017223E+02   -0.38614E-04   -0.93042E-04  6457   0.108E-01
  43 F= -.78747702E+02 E0= -.78687024E+02  d E =-.177380E-01
 curvature:  -7.21 expect dE=-0.211E-01 dE for cont linesearch -0.318E-02
 ZBRENT: increasing intervall
 opt :  19.8680  next Energy=   -78.752193 (dE=-0.222E-01)
 bond charge predicted
       N       E                     dE             d eps       ncg     rms          rms(c)
DAV:   1    -0.787251284219E+02    0.22535E-01   -0.14372E+01  6560   0.119E+01    0.515E-01
RMM:   2    -0.787930253434E+02   -0.67897E-01   -0.24615E-01  6581   0.248E+00    0.164E+00
RMM:   3    -0.787553232269E+02    0.37702E-01   -0.42013E-02  9089   0.699E-01    0.656E-01
RMM:   4    -0.787513392697E+02    0.39840E-02   -0.57103E-03  6571   0.321E-01    0.426E-01
RMM:   5    -0.787491600198E+02    0.21792E-02   -0.18719E-03  6519   0.178E-01    0.256E-01
RMM:   6    -0.787494083050E+02   -0.24829E-03   -0.24683E-03  6560   0.198E-01    0.266E-01
RMM:   7    -0.787485339441E+02    0.87436E-03   -0.28265E-03  6722   0.185E-01    0.112E-01
RMM:   8    -0.787483530214E+02    0.18092E-03   -0.61138E-04  5919   0.108E-01    0.569E-02
RMM:   9    -0.787482994141E+02    0.53607E-04   -0.86664E-05  3594   0.467E-02
  44 F= -.78748299E+02 E0= -.78687169E+02  d E =-.183357E-01
 curvature: -10.18 expect dE=-0.715E-01 dE for cont linesearch -0.237E-02
 ZBRENT: bracketing found
 ZBRENT: interpolating
 opt :  15.3104  next Energy=   -78.750373 (dE=-0.204E-01)
 bond charge predicted
       N       E                     dE             d eps       ncg     rms          rms(c)
DAV:   1    -0.787472715875E+02    0.10814E-02   -0.25543E+00  7184   0.502E+00    0.205E-01
RMM:   2    -0.787618850593E+02   -0.14613E-01   -0.39489E-02  6584   0.898E-01    0.845E-01
RMM:   3    -0.787521760916E+02    0.97090E-02   -0.58151E-03  8813   0.275E-01    0.257E-01
RMM:   4    -0.787511384594E+02    0.10376E-02   -0.68998E-04  6246   0.107E-01    0.132E-01
RMM:   5    -0.787510104567E+02    0.12800E-03   -0.26732E-04  3967   0.695E-02    0.111E-01
RMM:   6    -0.787509436776E+02    0.66779E-04   -0.66487E-04  6212   0.111E-01
  45 F= -.78750944E+02 E0= -.78690003E+02  d E =-.209799E-01
 curvature:  -8.92 expect dE=-0.431E-01 dE for cont linesearch -0.930E-04
 trial: gam= 1.25625 g(F)=  0.483E-02 g(S)=  0.000E+00 ort =-0.193E-03 (trialstep = 0.135E+01)
 search vector abs. value=  0.996E-02
 bond charge predicted
       N       E                     dE             d eps       ncg     rms          rms(c)
DAV:   1    -0.787554883744E+02   -0.44779E-02   -0.32106E-01  7056   0.183E+00    0.134E-01
RMM:   2    -0.787730805214E+02   -0.17592E-01   -0.94629E-03  6783   0.389E-01    0.104E+00
RMM:   3    -0.787564973026E+02    0.16583E-01   -0.20587E-03  6710   0.165E-01    0.169E-01
RMM:   4    -0.787560772616E+02    0.42004E-03   -0.52691E-04  5274   0.991E-02    0.110E-01
RMM:   5    -0.787559204026E+02    0.15686E-03   -0.11885E-04  3619   0.650E-02    0.530E-02
RMM:   6    -0.787559137843E+02    0.66183E-05   -0.79040E-05  3549   0.501E-02
  46 F= -.78755914E+02 E0= -.78694907E+02  d E =-.497011E-02
 trial-energy change:   -0.004970  1 .order   -0.005025   -0.006202   -0.003849
 step:   3.5650(harm=  3.5650)  dis= 0.01469  next Energy=   -78.759116 (dE=-0.817E-02)
 bond charge predicted
       N       E                     dE             d eps       ncg     rms          rms(c)
DAV:   1    -0.787578682619E+02   -0.19479E-02   -0.85286E-01  6608   0.298E+00    0.202E-01
RMM:   2    -0.787726405819E+02   -0.14772E-01   -0.19107E-02  6654   0.554E-01    0.922E-01
RMM:   3    -0.787605501345E+02    0.12090E-01   -0.28750E-03  6912   0.201E-01    0.299E-01
RMM:   4    -0.787596086992E+02    0.94144E-03   -0.11414E-03  6543   0.137E-01    0.186E-01
RMM:   5    -0.787591040877E+02    0.50461E-03   -0.23038E-04  3872   0.712E-02    0.759E-02
RMM:   6    -0.787591522543E+02   -0.48167E-04   -0.22144E-04  3744   0.829E-02
  47 F= -.78759152E+02 E0= -.78698094E+02  d E =-.820858E-02
 curvature:  -3.87 expect dE=-0.352E-01 dE for cont linesearch -0.602E-06
 trial: gam= 1.82205 g(F)=  0.908E-02 g(S)=  0.000E+00 ort = 0.393E-04 (trialstep = 0.423E+00)
 search vector abs. value=  0.423E-01
 bond charge predicted
       N       E                     dE             d eps       ncg     rms          rms(c)
DAV:   1    -0.787625298139E+02   -0.34257E-02   -0.18417E-01  6768   0.144E+00    0.866E-02
RMM:   2    -0.787629551614E+02   -0.42535E-03   -0.38659E-03  6578   0.257E-01    0.811E-02
RMM:   3    -0.787640786641E+02   -0.11235E-02   -0.51981E-04  5272   0.101E-01    0.272E-01
RMM:   4    -0.787629490259E+02    0.11296E-02   -0.16654E-04  3738   0.617E-02    0.777E-02
RMM:   5    -0.787628677144E+02    0.81311E-04   -0.91124E-05  3559   0.619E-02
  48 F= -.78762868E+02 E0= -.78701818E+02  d E =-.371546E-02
 ZBRENT: can't locate minimum, use default step
 trial-energy change:   -0.003715  1 .order   -0.003748   -0.003871   -0.003625
 step:   1.6914(harm=  6.6487)  dis= 0.01137  next Energy=   -78.789585 (dE=-0.304E-01)
 bond charge predicted
       N       E                     dE             d eps       ncg     rms          rms(c)
DAV:   1    -0.787703907486E+02   -0.74417E-02   -0.16513E+00  6560   0.425E+00    0.228E-01
RMM:   2    -0.787753795113E+02   -0.49888E-02   -0.30548E-02  6591   0.720E-01    0.384E-01
RMM:   3    -0.787769020734E+02   -0.15226E-02   -0.33239E-03  7901   0.231E-01    0.479E-01
RMM:   4    -0.787737380670E+02    0.31640E-02   -0.98460E-04  6508   0.114E-01    0.189E-01
RMM:   5    -0.787732264555E+02    0.51161E-03   -0.33020E-04  4367   0.760E-02    0.874E-02
RMM:   6    -0.787732160791E+02    0.10376E-04   -0.35070E-04  4384   0.880E-02
  49 F= -.78773216E+02 E0= -.78712096E+02  d E =-.140638E-01
 curvature:  -5.62 expect dE=-0.325E-01 dE for cont linesearch -0.763E-02
 ZBRENT: increasing intervall
 opt :   4.2284  next Energy=   -78.789907 (dE=-0.308E-01)
 bond charge predicted
       N       E                     dE             d eps       ncg     rms          rms(c)
DAV:   1    -0.787765138186E+02   -0.32874E-02   -0.65732E+00  6560   0.848E+00    0.449E-01
RMM:   2    -0.788032414160E+02   -0.26728E-01   -0.12618E-01  6591   0.151E+00    0.101E+00
RMM:   3    -0.787976743000E+02    0.55671E-02   -0.14331E-02  8325   0.449E-01    0.774E-01
RMM:   4    -0.787897050603E+02    0.79692E-02   -0.41844E-03  6577   0.264E-01    0.349E-01
RMM:   5    -0.787880714611E+02    0.16336E-02   -0.14336E-03  6524   0.158E-01    0.169E-01
RMM:   6    -0.787885378887E+02   -0.46643E-03   -0.13736E-03  6656   0.141E-01    0.212E-01
RMM:   7    -0.787879063794E+02    0.63151E-03   -0.98243E-04  6527   0.112E-01    0.830E-02
RMM:   8    -0.787878103613E+02    0.96018E-04   -0.19422E-04  3770   0.613E-02
  50 F= -.78787810E+02 E0= -.78726573E+02  d E =-.286581E-01
 curvature: -12.30 expect dE=-0.326E-01 dE for cont linesearch -0.632E-02
 ZBRENT: increasing intervall
 opt :   9.3025  next Energy=   -78.796673 (dE=-0.375E-01)
 bond charge predicted
       N       E                     dE             d eps       ncg     rms          rms(c)
DAV:   1    -0.787488610987E+02    0.39045E-01   -0.26137E+01  6560   0.169E+01    0.918E-01
RMM:   2    -0.788452406246E+02   -0.96380E-01   -0.54197E-01  6590   0.353E+00    0.187E+00
RMM:   3    -0.788541253125E+02   -0.88847E-02   -0.72274E-02  8248   0.913E-01    0.180E+00
RMM:   4    -0.788014487973E+02    0.52677E-01   -0.15064E-02  6657   0.494E-01    0.521E-01
RMM:   5    -0.787997286034E+02    0.17202E-02   -0.52719E-03  6644   0.286E-01    0.441E-01
RMM:   6    -0.787982300520E+02    0.14986E-02   -0.49405E-03  6598   0.262E-01    0.281E-01
RMM:   7    -0.787981141484E+02    0.11590E-03   -0.41528E-03  6589   0.243E-01    0.227E-01
RMM:   8    -0.787973879413E+02    0.72621E-03   -0.10230E-03  6491   0.124E-01    0.118E-01
RMM:   9    -0.787971865137E+02    0.20143E-03   -0.14042E-04  3676   0.521E-02    0.569E-02
RMM:  10    -0.787971719305E+02    0.14583E-04   -0.10602E-04  3664   0.509E-02
  51 F= -.78797172E+02 E0= -.78735644E+02  d E =-.380197E-01
 curvature: -17.26 expect dE=-0.782E-01 dE for cont linesearch -0.145E-03
 trial: gam= 0.57505 g(F)=  0.453E-02 g(S)=  0.000E+00 ort =-0.596E-03 (trialstep = 0.220E+01)
 search vector abs. value=  0.178E-01
 bond charge predicted
       N       E                     dE             d eps       ncg     rms          rms(c)
DAV:   1    -0.788033181500E+02   -0.61316E-02   -0.14439E+00  7136   0.398E+00    0.226E-01
RMM:   2    -0.788060109992E+02   -0.26928E-02   -0.26334E-02  6583   0.663E-01    0.151E-01
RMM:   3    -0.788173861606E+02   -0.11375E-01   -0.32281E-03  7251   0.222E-01    0.839E-01
RMM:   4    -0.788060738930E+02    0.11312E-01   -0.12627E-03  6673   0.121E-01    0.982E-02
RMM:   5    -0.788060182521E+02    0.55641E-04   -0.42939E-04  4808   0.863E-02
  52 F= -.78806018E+02 E0= -.78744457E+02  d E =-.884632E-02
 ZBRENT: can't locate minimum, use default step
 trial-energy change:   -0.008846  1 .order   -0.008721   -0.009216   -0.008226
 step:   8.7951(harm= 20.4754)  dis= 0.04008  next Energy=   -78.840082 (dE=-0.429E-01)
 bond charge predicted
       N       E                     dE             d eps       ncg     rms          rms(c)
DAV:   1    -0.788029825132E+02    0.30914E-02   -0.12859E+01  6560   0.119E+01    0.689E-01
RMM:   2    -0.788270115923E+02   -0.24029E-01   -0.23742E-01  6583   0.219E+00    0.450E-01
RMM:   3    -0.788690593569E+02   -0.42048E-01   -0.30694E-02  7824   0.701E-01    0.171E+00
RMM:   4    -0.788399780179E+02    0.29081E-01   -0.97167E-03  6881   0.323E-01    0.881E-01
RMM:   5    -0.788265938967E+02    0.13384E-01   -0.50031E-03  6618   0.276E-01    0.266E-01
RMM:   6    -0.788268915214E+02   -0.29762E-03   -0.35881E-03  6585   0.236E-01    0.261E-01
RMM:   7    -0.788261834781E+02    0.70804E-03   -0.19263E-03  6591   0.169E-01    0.144E-01
RMM:   8    -0.788259110665E+02    0.27241E-03   -0.45856E-04  5076   0.927E-02    0.724E-02
RMM:   9    -0.788258778533E+02    0.33213E-04   -0.96872E-05  3630   0.613E-02
  53 F= -.78825878E+02 E0= -.78764414E+02  d E =-.287059E-01
 curvature: -25.77 expect dE=-0.728E-01 dE for cont linesearch -0.845E-02
 ZBRENT: increasing intervall
 opt :  21.9877  next Energy=   -78.840328 (dE=-0.432E-01)
 bond charge predicted
       N       E                     dE             d eps       ncg     rms          rms(c)
DAV:   1    -0.787413893765E+02    0.84522E-01   -0.50280E+01  6560   0.236E+01    0.138E+00
RMM:   2    -0.788425271811E+02   -0.10114E+00   -0.10282E+00  6582   0.513E+00    0.104E+00
RMM:   3    -0.791832894374E+02   -0.34076E+00   -0.15803E-01  7978   0.132E+00    0.444E+00
RMM:   4    -0.788488474058E+02    0.33444E+00   -0.53970E-02  6820   0.788E-01    0.799E-01
RMM:   5    -0.788407676425E+02    0.80798E-02   -0.16711E-02  6593   0.511E-01    0.533E-01
RMM:   6    -0.788439074295E+02   -0.31398E-02   -0.12994E-02  6632   0.425E-01    0.634E-01
RMM:   7    -0.788391450726E+02    0.47624E-02   -0.71225E-03  6586   0.319E-01    0.326E-01
RMM:   8    -0.788380167249E+02    0.11283E-02   -0.21417E-03  6551   0.188E-01    0.199E-01
RMM:   9    -0.788374430804E+02    0.57364E-03   -0.40288E-04  4778   0.859E-02    0.848E-02
RMM:  10    -0.788374211098E+02    0.21971E-04   -0.14394E-04  3717   0.658E-02
  54 F= -.78837421E+02 E0= -.78775960E+02  d E =-.402492E-01
 curvature: -44.07 expect dE=-0.121E+00 dE for cont linesearch -0.760E-03
 trial: gam= 0.72961 g(F)=  0.276E-02 g(S)=  0.000E+00 ort =-0.554E-03 (trialstep = 0.616E+01)
 search vector abs. value=  0.114E-01
 bond charge predicted
       N       E                     dE             d eps       ncg     rms          rms(c)
DAV:   1    -0.788376295274E+02   -0.18645E-03   -0.57739E+00  6880   0.776E+00    0.451E-01
RMM:   2    -0.788680598128E+02   -0.30430E-01   -0.85711E-02  6584   0.142E+00    0.124E+00
RMM:   3    -0.788513948246E+02    0.16665E-01   -0.12975E-02  8389   0.387E-01    0.640E-01
RMM:   4    -0.788454344120E+02    0.59604E-02   -0.24261E-03  6569   0.210E-01    0.219E-01
RMM:   5    -0.788459112273E+02   -0.47682E-03   -0.20971E-03  6577   0.186E-01    0.257E-01
RMM:   6    -0.788454278268E+02    0.48340E-03   -0.14693E-03  6582   0.145E-01    0.171E-01
RMM:   7    -0.788449742149E+02    0.45361E-03   -0.56263E-04  5725   0.981E-02    0.562E-02
RMM:   8    -0.788449849930E+02   -0.10778E-04   -0.73810E-05  3629   0.443E-02
  55 F= -.78844985E+02 E0= -.78783505E+02  d E =-.756388E-02
 trial-energy change:   -0.007564  1 .order   -0.007326   -0.014474   -0.000178
 step:   6.2332(harm=  6.2332)  dis= 0.02496  next Energy=   -78.844748 (dE=-0.733E-02)
 bond charge predicted
       N       E                     dE             d eps       ncg     rms          rms(c)
DAV:   1    -0.788449833723E+02   -0.91574E-05   -0.89639E-04  7360   0.123E-01    0.396E-02
RMM:   2    -0.788494227278E+02   -0.44394E-02   -0.69084E-04  5646   0.817E-02    0.526E-01
RMM:   3    -0.788451042992E+02    0.43184E-02   -0.43478E-04  4948   0.731E-02    0.581E-02
RMM:   4    -0.788450459076E+02    0.58392E-04   -0.53402E-05  3596   0.432E-02
  56 F= -.78845046E+02 E0= -.78783526E+02  d E =-.762480E-02
 curvature: -15.17 expect dE=-0.730E-01 dE for cont linesearch -0.103E-04
 trial: gam= 1.39733 g(F)=  0.481E-02 g(S)=  0.000E+00 ort =-0.881E-04 (trialstep = 0.262E+01)
 search vector abs. value=  0.269E-01
 bond charge predicted
       N       E                     dE             d eps       ncg     rms          rms(c)
DAV:   1    -0.788431082004E+02    0.19961E-02   -0.47025E+00  6560   0.728E+00    0.399E-01
RMM:   2    -0.788549264689E+02   -0.11818E-01   -0.85942E-02  6593   0.122E+00    0.562E-01
RMM:   3    -0.788706933558E+02   -0.15767E-01   -0.10729E-02  7568   0.391E-01    0.117E+00
RMM:   4    -0.788519039753E+02    0.18789E-01   -0.45301E-03  6680   0.249E-01    0.360E-01
RMM:   5    -0.788499765707E+02    0.19274E-02   -0.14333E-03  6542   0.150E-01    0.173E-01
RMM:   6    -0.788498562436E+02    0.12033E-03   -0.10406E-03  6534   0.125E-01    0.140E-01
RMM:   7    -0.788497323799E+02    0.12386E-03   -0.82701E-04  6468   0.112E-01    0.991E-02
RMM:   8    -0.788496505377E+02    0.81842E-04   -0.23183E-04  3845   0.684E-02
  57 F= -.78849651E+02 E0= -.78788030E+02  d E =-.460463E-02
 trial-energy change:   -0.004605  1 .order   -0.005245   -0.012311    0.001822
 step:   2.1870(harm=  2.2860)  dis= 0.01121  next Energy=   -78.849805 (dE=-0.476E-02)
 bond charge predicted
       N       E                     dE             d eps       ncg     rms          rms(c)
DAV:   1    -0.788496911625E+02    0.41217E-04   -0.13137E-01  7520   0.122E+00    0.814E-02
RMM:   2    -0.788588286168E+02   -0.91375E-02   -0.37455E-03  6738   0.253E-01    0.745E-01
RMM:   3    -0.788500868096E+02    0.87418E-02   -0.94238E-04  6370   0.110E-01    0.810E-02
RMM:   4    -0.788499746483E+02    0.11216E-03   -0.13532E-04  3759   0.600E-02    0.681E-02
RMM:   5    -0.788499307229E+02    0.43925E-04   -0.62631E-05  3591   0.531E-02
  58 F= -.78849931E+02 E0= -.78788305E+02  d E =-.488482E-02
 curvature:  -5.99 expect dE=-0.457E-02 dE for cont linesearch -0.762E-05
 trial: gam= 0.22626 g(F)=  0.762E-03 g(S)=  0.000E+00 ort =-0.185E-03 (trialstep = 0.254E+01)
 search vector abs. value=  0.206E-02
 bond charge predicted
       N       E                     dE             d eps       ncg     rms          rms(c)
DAV:   1    -0.788507301164E+02   -0.75547E-03   -0.42661E-01  6592   0.203E+00    0.884E-02
RMM:   2    -0.788547465149E+02   -0.40164E-02   -0.68366E-03  6590   0.367E-01    0.470E-01
RMM:   3    -0.788517671399E+02    0.29794E-02   -0.10814E-03  6607   0.129E-01    0.154E-01
RMM:   4    -0.788513881422E+02    0.37900E-03   -0.23445E-04  3928   0.777E-02    0.743E-02
RMM:   5    -0.788513202058E+02    0.67936E-04   -0.83469E-05  3504   0.627E-02
  59 F= -.78851320E+02 E0= -.78789689E+02  d E =-.138948E-02
 trial-energy change:   -0.001389  1 .order   -0.001330   -0.001827   -0.000834
 step:   4.6665(harm=  4.6665)  dis= 0.00633  next Energy=   -78.851611 (dE=-0.168E-02)
 bond charge predicted
       N       E                     dE             d eps       ncg     rms          rms(c)
DAV:   1    -0.788514923075E+02   -0.10417E-03   -0.30356E-01  6560   0.172E+00    0.894E-02
RMM:   2    -0.788571973868E+02   -0.57051E-02   -0.49753E-03  6637   0.310E-01    0.572E-01
RMM:   3    -0.788521308566E+02    0.50665E-02   -0.92246E-04  6449   0.117E-01    0.119E-01
RMM:   4    -0.788519267517E+02    0.20410E-03   -0.20688E-04  3841   0.745E-02    0.743E-02
RMM:   5    -0.788518706665E+02    0.56085E-04   -0.90390E-05  3547   0.637E-02
  60 F= -.78851871E+02 E0= -.78790280E+02  d E =-.193994E-02
 curvature:  -6.66 expect dE=-0.333E-02 dE for cont linesearch -0.194E-04
 trial: gam= 0.51215 g(F)=  0.500E-03 g(S)=  0.000E+00 ort = 0.774E-04 (trialstep = 0.296E+01)
 search vector abs. value=  0.112E-02
 bond charge predicted
       N       E                     dE             d eps       ncg     rms          rms(c)
DAV:   1    -0.788523801873E+02   -0.45344E-03   -0.48126E-01  6560   0.228E+00    0.113E-01
RMM:   2    -0.788535696683E+02   -0.11895E-02   -0.86589E-03  6598   0.386E-01    0.158E-01
RMM:   3    -0.788548328211E+02   -0.12632E-02   -0.10692E-03  6565   0.147E-01    0.333E-01
RMM:   4    -0.788532485714E+02    0.15842E-02   -0.29182E-04  4204   0.721E-02    0.103E-01
RMM:   5    -0.788531043595E+02    0.14421E-03   -0.12589E-04  3616   0.718E-02    0.557E-02
RMM:   6    -0.788530863924E+02    0.17967E-04   -0.58557E-05  3530   0.413E-02
  61 F= -.78853086E+02 E0= -.78791531E+02  d E =-.121573E-02
 trial-energy change:   -0.001216  1 .order   -0.001167   -0.001599   -0.000735
 step:   5.4851(harm=  5.4851)  dis= 0.00485  next Energy=   -78.853351 (dE=-0.148E-02)
 bond charge predicted
       N       E                     dE             d eps       ncg     rms          rms(c)
DAV:   1    -0.788527662246E+02    0.33813E-03   -0.34769E-01  6560   0.194E+00    0.854E-02
RMM:   2    -0.788533624017E+02   -0.59618E-03   -0.60361E-03  6576   0.331E-01    0.643E-02
RMM:   3    -0.788537509112E+02   -0.38851E-03   -0.57568E-04  5501   0.117E-01    0.168E-01
RMM:   4    -0.788535723618E+02    0.17855E-03   -0.15453E-04  3655   0.576E-02    0.129E-01
RMM:   5    -0.788533238804E+02    0.24848E-03   -0.76250E-05  3528   0.525E-02    0.332E-02
RMM:   6    -0.788533241985E+02   -0.31808E-06   -0.40531E-05  3495   0.316E-02
  62 F= -.78853324E+02 E0= -.78791800E+02  d E =-.145353E-02
 curvature:  -5.68 expect dE=-0.789E-02 dE for cont linesearch -0.332E-04
 trial: gam= 3.12481 g(F)=  0.139E-02 g(S)=  0.000E+00 ort =-0.808E-04 (trialstep = 0.329E+00)
 search vector abs. value=  0.118E-01
 bond charge predicted
       N       E                     dE             d eps       ncg     rms          rms(c)
DAV:   1    -0.788535846612E+02   -0.26078E-03   -0.62876E-02  6816   0.801E-01    0.360E-02
RMM:   2    -0.788540098857E+02   -0.42522E-03   -0.10190E-03  6315   0.142E-01    0.147E-01
RMM:   3    -0.788537458933E+02    0.26399E-03   -0.11838E-04  3564   0.534E-02    0.636E-02
RMM:   4    -0.788536885040E+02    0.57389E-04   -0.55166E-05  3465   0.438E-02
  63 F= -.78853689E+02 E0= -.78792164E+02  d E =-.364305E-03
 ZBRENT: can't locate minimum, use default step
 trial-energy change:   -0.000364  1 .order   -0.000339   -0.000373   -0.000306
 step:   1.3141(harm=  1.8188)  dis= 0.00360  next Energy=   -78.854357 (dE=-0.103E-02)
 bond charge predicted
       N       E                     dE             d eps       ncg     rms          rms(c)
DAV:   1    -0.788538506895E+02   -0.10480E-03   -0.56550E-01  6560   0.238E+00    0.901E-02
RMM:   2    -0.788550611612E+02   -0.12105E-02   -0.84389E-03  6574   0.416E-01    0.167E-01
RMM:   3    -0.788551348785E+02   -0.73717E-04   -0.91966E-04  6354   0.124E-01
  64 F= -.78855135E+02 E0= -.78793843E+02  d E =-.181068E-02
 curvature:  -8.37 expect dE=-0.103E-01 dE for cont linesearch -0.145E-03
 trial: gam=-0.03127 g(F)=  0.123E-02 g(S)=  0.000E+00 ort = 0.452E-03 (trialstep = 0.526E+00)
 search vector abs. value=  0.121E-02
 bond charge predicted
       N       E                     dE             d eps       ncg     rms          rms(c)
DAV:   1    -0.788551418713E+02   -0.80710E-04   -0.12782E-02  7856   0.453E-01    0.630E-02
RMM:   2    -0.788553181412E+02   -0.17627E-03   -0.71284E-04  5575   0.104E-01    0.110E-01
RMM:   3    -0.788556695710E+02   -0.35143E-03   -0.17048E-04  3750   0.604E-02    0.192E-01
RMM:   4    -0.788551295985E+02    0.53997E-03   -0.10098E-04  3582   0.541E-02    0.476E-02
RMM:   5    -0.788551024801E+02    0.27118E-04   -0.47186E-05  3438   0.412E-02
  65 F= -.78855102E+02 E0= -.78793716E+02  d E =0.323984E-04
 trial-energy change:    0.000032  1 .order   -0.000496   -0.000637   -0.000355
 step:   1.1881(harm=  1.1881)  dis= 0.00208  next Energy=   -78.855855 (dE=-0.720E-03)
 bond charge predicted
       N       E                     dE             d eps       ncg     rms          rms(c)
DAV:   1    -0.788553267547E+02   -0.19716E-03   -0.18121E-02  7280   0.466E-01    0.505E-02
RMM:   2    -0.788556857444E+02   -0.35899E-03   -0.67644E-04  4639   0.929E-02    0.141E-01
RMM:   3    -0.788556693592E+02    0.16385E-04   -0.14747E-04  3681   0.656E-02
  66 F= -.78855669E+02 E0= -.78794399E+02  d E =-.534481E-03
 curvature:  -0.59 expect dE=-0.127E-03 dE for cont linesearch -0.282E-05
 trial: gam= 0.09148 g(F)=  0.214E-03 g(S)=  0.000E+00 ort = 0.759E-04 (trialstep = 0.658E+00)
 search vector abs. value=  0.238E-03
 reached required accuracy - stopping structural energy minimisation
 writing wavefunctions
