 running on   40 total cores
 distrk:  each k-point on   40 cores,    1 groups
 distr:  one band on    1 cores,   40 groups
 using from now: INCAR     
 vasp.5.4.1 05Feb16 (build Sep 02 2018 21:45:25) complex                        
  
 POSCAR found type information on POSCAR  N 
 POSCAR found :  1 types and       2 ions
 scaLAPACK will be used

 ----------------------------------------------------------------------------- 
|                                                                             |
|           W    W    AA    RRRRR   N    N  II  N    N   GGGG   !!!           |
|           W    W   A  A   R    R  NN   N  II  NN   N  G    G  !!!           |
|           W    W  A    A  R    R  N N  N  II  N N  N  G       !!!           |
|           W WW W  AAAAAA  RRRRR   N  N N  II  N  N N  G  GGG   !            |
|           WW  WW  A    A  R   R   N   NN  II  N   NN  G    G                |
|           W    W  A    A  R    R  N    N  II  N    N   GGGG   !!!           |
|                                                                             |
|      For optimal performance we recommend to set                            |
|        NCORE= 4 - approx SQRT( number of cores)                             |
|      NCORE specifies how many cores store one orbital (NPAR=cpu/NCORE).     |
|      This setting can  greatly improve the performance of VASP for DFT.     |
|      The default, NPAR=number of cores might be grossly inefficient         |
|      on modern multi-core architectures or massively parallel machines.     |
|      Do your own testing !!!!                                               |
|      Unfortunately you need to use the default for GW and RPA calculations. |
|      (for HF NCORE is supported but not extensively tested yet)             |
|                                                                             |
 ----------------------------------------------------------------------------- 

 LDA part: xc-table for Ceperly-Alder, standard interpolation
 POSCAR, INCAR and KPOINTS ok, starting setup
 WARNING: small aliasing (wrap around) errors must be expected
 FFT: planning ...
 WAVECAR not read
 entering main loop
       N       E                     dE             d eps       ncg     rms          rms(c)
DAV:   1     0.477535168343E+02    0.47754E+02   -0.12496E+03   240   0.846E+01
DAV:   2    -0.422421533708E+01   -0.51978E+02   -0.51978E+02   320   0.209E+01
DAV:   3    -0.690274909764E+01   -0.26785E+01   -0.26785E+01   160   0.725E+00
DAV:   4    -0.694156315600E+01   -0.38814E-01   -0.38814E-01   160   0.111E+00
DAV:   5    -0.694220127433E+01   -0.63812E-03   -0.63812E-03   160   0.120E-01    0.474E+00
DAV:   6    -0.723523821340E+01   -0.29304E+00   -0.34966E+00   160   0.177E+00    0.261E+00
DAV:   7    -0.713478245892E+01    0.10046E+00   -0.13479E+00   320   0.125E+00    0.890E-01
DAV:   8    -0.737962843264E+01   -0.24485E+00   -0.22657E-01   160   0.814E-01    0.482E-01
DAV:   9    -0.746235153491E+01   -0.82723E-01   -0.33728E-02   320   0.338E-01    0.175E-01
DAV:  10    -0.750093585718E+01   -0.38584E-01   -0.15570E-03   240   0.930E-02    0.110E-01
DAV:  11    -0.756421783307E+01   -0.63282E-01   -0.32931E-03   240   0.123E-01    0.578E-02
DAV:  12    -0.759945047133E+01   -0.35233E-01   -0.34999E-03   160   0.106E-01    0.390E-02
DAV:  13    -0.762482758425E+01   -0.25377E-01   -0.53737E-04   160   0.602E-02    0.255E-02
DAV:  14    -0.764155559118E+01   -0.16728E-01   -0.33487E-04   320   0.447E-02    0.144E-02
DAV:  15    -0.764986988292E+01   -0.83143E-02   -0.14702E-04   160   0.263E-02    0.103E-02
DAV:  16    -0.765567020356E+01   -0.58003E-02   -0.61502E-05   160   0.227E-02    0.459E-03
DAV:  17    -0.765818312448E+01   -0.25129E-02   -0.17407E-05   240   0.134E-02    0.228E-03
DAV:  18    -0.765905563053E+01   -0.87251E-03   -0.54926E-06   160   0.791E-03    0.117E-03
DAV:  19    -0.765948742313E+01   -0.43179E-03   -0.19736E-06   240   0.463E-03    0.545E-04
DAV:  20    -0.765957502106E+01   -0.87598E-04   -0.27541E-07   160   0.148E-03    0.239E-04
DAV:  21    -0.765960113732E+01   -0.26116E-04   -0.15644E-07   160   0.101E-03    0.157E-04
DAV:  22    -0.765961212136E+01   -0.10984E-04   -0.15789E-07   240   0.885E-04    0.117E-04
DAV:  23    -0.765961147699E+01    0.64437E-06   -0.71475E-08   160   0.688E-04
   1 F= -.76596115E+01 E0= -.76596115E+01  d E =-.765961E+01  mag=    -0.0000
 curvature:   0.00 expect dE= 0.000E+00 dE for cont linesearch  0.000E+00
 trial: gam= 0.00000 g(F)=  0.912E-01 g(S)=  0.000E+00 ort = 0.000E+00 (trialstep = 0.100E+01)
 search vector abs. value=  0.912E-01
 bond charge predicted
       N       E                     dE             d eps       ncg     rms          rms(c)
DAV:   1    -0.775003121830E+01   -0.90419E-01   -0.66129E-01   160   0.160E+00    0.351E-01
DAV:   2    -0.774510510214E+01    0.49261E-02   -0.15927E-02   160   0.240E-01    0.105E-01
DAV:   3    -0.774416987973E+01    0.93522E-03   -0.14568E-03   240   0.874E-02    0.470E-02
DAV:   4    -0.774642145039E+01   -0.22516E-02   -0.83171E-04   160   0.498E-02    0.204E-02
DAV:   5    -0.774834762333E+01   -0.19262E-02   -0.22900E-04   240   0.245E-02    0.933E-03
DAV:   6    -0.775007633846E+01   -0.17287E-02   -0.13395E-04   240   0.168E-02    0.447E-03
DAV:   7    -0.775096913213E+01   -0.89279E-03   -0.35798E-05   200   0.881E-03    0.275E-03
DAV:   8    -0.775170217465E+01   -0.73304E-03   -0.12186E-05   240   0.605E-03    0.176E-03
DAV:   9    -0.775232222907E+01   -0.62005E-03   -0.31023E-06   240   0.505E-03    0.120E-03
DAV:  10    -0.775293751432E+01   -0.61529E-03   -0.32868E-06   240   0.390E-03    0.624E-04
DAV:  11    -0.775309589073E+01   -0.15838E-03   -0.67153E-07   160   0.212E-03    0.338E-04
DAV:  12    -0.775319099690E+01   -0.95106E-04   -0.12955E-07   240   0.111E-03    0.200E-04
DAV:  13    -0.775320937971E+01   -0.18383E-04   -0.66737E-08   160   0.827E-04    0.989E-05
DAV:  14    -0.775319371593E+01    0.15664E-04   -0.29351E-08   160   0.483E-04    0.487E-05
DAV:  15    -0.775319336026E+01    0.35568E-06   -0.18591E-08   240   0.299E-04
   2 F= -.77531934E+01 E0= -.77531934E+01  d E =-.935819E-01  mag=    -0.0000
 ZBRENT: can't locate minimum, use default step
 trial-energy change:   -0.093582  1 .order   -0.093603   -0.091221   -0.095985
 step:   4.0000(harm=  4.0000)  dis= 0.03753  next Energy=    -8.062606 (dE=-0.403E+00)
 bond charge predicted
       N       E                     dE             d eps       ncg     rms          rms(c)
DAV:   1    -0.803589169659E+01   -0.28270E+00   -0.59825E+00   160   0.483E+00    0.106E+00
DAV:   2    -0.801971368559E+01    0.16178E-01   -0.12023E-01   160   0.682E-01    0.315E-01
DAV:   3    -0.803021879013E+01   -0.10505E-01   -0.13744E-02   320   0.266E-01    0.151E-01
DAV:   4    -0.803903730141E+01   -0.88185E-02   -0.57211E-03   240   0.134E-01    0.632E-02
DAV:   5    -0.804506651415E+01   -0.60292E-02   -0.91868E-04   320   0.588E-02    0.288E-02
DAV:   6    -0.805140267917E+01   -0.63362E-02   -0.48712E-04   160   0.399E-02    0.138E-02
DAV:   7    -0.805519876751E+01   -0.37961E-02   -0.22015E-04   240   0.217E-02    0.873E-03
DAV:   8    -0.805808388332E+01   -0.28851E-02   -0.92618E-05   160   0.172E-02    0.565E-03
DAV:   9    -0.806087114701E+01   -0.27873E-02   -0.49295E-05   160   0.174E-02    0.365E-03
DAV:  10    -0.806201674015E+01   -0.11456E-02   -0.12649E-05   160   0.774E-03    0.240E-03
DAV:  11    -0.806337673127E+01   -0.13600E-02   -0.11447E-05   160   0.619E-03    0.116E-03
DAV:  12    -0.806360606278E+01   -0.22933E-03   -0.95755E-07   320   0.302E-03    0.688E-04
DAV:  13    -0.806388720792E+01   -0.28115E-03   -0.60739E-07   160   0.221E-03    0.367E-04
DAV:  14    -0.806404815771E+01   -0.16095E-03   -0.22532E-07   160   0.147E-03    0.158E-04
DAV:  15    -0.806403287418E+01    0.15284E-04   -0.12612E-07   160   0.693E-04    0.558E-05
DAV:  16    -0.806403112286E+01    0.17513E-05   -0.47521E-08   320   0.641E-04
   3 F= -.80640311E+01 E0= -.80640311E+01  d E =-.404420E+00  mag=    -0.0000
 curvature:  -3.06 expect dE=-0.418E+00 dE for cont linesearch -0.418E+00
 ZBRENT: increasing intervall
 opt :  10.0000  next Energy=    -8.826791 (dE=-0.117E+01)
 bond charge predicted
       N       E                     dE             d eps       ncg     rms          rms(c)
DAV:   1    -0.872873558143E+01   -0.66470E+00   -0.24206E+01   160   0.976E+00    0.215E+00
DAV:   2    -0.870306325640E+01    0.25672E-01   -0.44607E-01   160   0.134E+00    0.666E-01
DAV:   3    -0.875583396216E+01   -0.52771E-01   -0.58348E-02   280   0.512E-01    0.354E-01
DAV:   4    -0.878002558337E+01   -0.24192E-01   -0.24997E-02   240   0.263E-01    0.138E-01
DAV:   5    -0.879530124576E+01   -0.15276E-01   -0.31917E-03   280   0.105E-01    0.628E-02
DAV:   6    -0.881219282418E+01   -0.16892E-01   -0.12850E-03   200   0.744E-02    0.324E-02
DAV:   7    -0.881933713982E+01   -0.71443E-02   -0.35707E-04   240   0.373E-02    0.210E-02
DAV:   8    -0.882780128077E+01   -0.84641E-02   -0.41823E-04   160   0.373E-02    0.141E-02
DAV:   9    -0.883576565589E+01   -0.79644E-02   -0.22055E-04   160   0.328E-02    0.786E-03
DAV:  10    -0.883938673348E+01   -0.36211E-02   -0.54779E-05   160   0.154E-02    0.529E-03
DAV:  11    -0.884277050376E+01   -0.33838E-02   -0.33493E-05   160   0.122E-02    0.225E-03
DAV:  12    -0.884356479576E+01   -0.79429E-03   -0.70584E-06   320   0.790E-03    0.142E-03
DAV:  13    -0.884421455656E+01   -0.64976E-03   -0.28139E-06   160   0.462E-03    0.698E-04
DAV:  14    -0.884456467935E+01   -0.35012E-03   -0.70185E-07   320   0.258E-03    0.282E-04
DAV:  15    -0.884461512277E+01   -0.50443E-04   -0.47575E-07   160   0.114E-03    0.116E-04
DAV:  16    -0.884459984435E+01    0.15278E-04   -0.81306E-08   160   0.675E-04    0.565E-05
DAV:  17    -0.884460012141E+01   -0.27705E-06   -0.22462E-08   240   0.446E-04
   4 F= -.88446001E+01 E0= -.88446001E+01  d E =-.118499E+01  mag=    -0.0000
 curvature:  -5.59 expect dE=-0.139E+01 dE for cont linesearch -0.139E+01
 ZBRENT: increasing intervall
 opt :  22.0000  next Energy=   -11.125605 (dE=-0.347E+01)
 bond charge predicted
       N       E                     dE             d eps       ncg     rms          rms(c)
DAV:   1    -0.107778533151E+02   -0.19333E+01   -0.10072E+02   160   0.201E+01    0.434E+00
DAV:   2    -0.108143086710E+02   -0.36455E-01   -0.20246E+00   160   0.275E+00    0.167E+00
DAV:   3    -0.110219401219E+02   -0.20763E+00   -0.42586E-01   320   0.103E+00    0.121E+00
DAV:   4    -0.111227576124E+02   -0.10082E+00   -0.62028E-01   200   0.816E-01    0.576E-01
DAV:   5    -0.111732748768E+02   -0.50517E-01   -0.17725E-01   320   0.466E-01    0.443E-01
DAV:   6    -0.112413529259E+02   -0.68078E-01   -0.42630E-01   240   0.587E-01    0.200E-01
DAV:   7    -0.112710296656E+02   -0.29677E-01   -0.20741E-02   240   0.252E-01    0.203E-01
DAV:   8    -0.113046544197E+02   -0.33625E-01   -0.62201E-02   160   0.223E-01    0.109E-01
DAV:   9    -0.113437918005E+02   -0.39137E-01   -0.17736E-01   240   0.367E-01    0.585E-02
DAV:  10    -0.113551476073E+02   -0.11356E-01   -0.89036E-03   160   0.161E-01    0.499E-02
DAV:  11    -0.113636815926E+02   -0.85340E-02   -0.24174E-03   160   0.655E-02    0.202E-02
DAV:  12    -0.113707529182E+02   -0.70713E-02   -0.38756E-03   160   0.650E-02    0.179E-02
DAV:  13    -0.113727999241E+02   -0.20470E-02   -0.34501E-04   160   0.452E-02    0.708E-03
DAV:  14    -0.113735888265E+02   -0.78890E-03   -0.23753E-05   240   0.116E-02    0.592E-03
DAV:  15    -0.113746111647E+02   -0.10223E-02   -0.19829E-05   160   0.575E-03    0.246E-03
DAV:  16    -0.113751750889E+02   -0.56392E-03   -0.41863E-06   240   0.478E-03    0.167E-03
DAV:  17    -0.113754129487E+02   -0.23786E-03   -0.11051E-06   160   0.319E-03    0.758E-04
DAV:  18    -0.113754947057E+02   -0.81757E-04   -0.12571E-06   160   0.249E-03    0.706E-04
DAV:  19    -0.113755516442E+02   -0.56939E-04   -0.27542E-07   160   0.115E-03    0.261E-04
DAV:  20    -0.113755457626E+02    0.58816E-05   -0.52345E-07   320   0.853E-04
   5 F= -.11375546E+02 E0= -.11375546E+02  d E =-.371593E+01  mag=    -0.0000
 curvature:  -9.15 expect dE=-0.745E+01 dE for cont linesearch -0.745E+01
 ZBRENT: increasing intervall
 opt :  46.0000  next Energy=   -20.838220 (dE=-0.132E+02)
 bond charge predicted
       N       E                     dE             d eps       ncg     rms          rms(c)
DAV:   1    -0.167755283902E+02   -0.54000E+01   -0.46785E+02   160   0.441E+01    0.482E+00
DAV:   2    -0.168830656913E+02   -0.10754E+00   -0.55967E+00   160   0.608E+00    0.325E+00
DAV:   3    -0.166523024466E+02    0.23076E+00   -0.16114E+00   240   0.231E+00    0.810E-01
DAV:   4    -0.166399123916E+02    0.12390E-01   -0.42784E-02   160   0.399E-01    0.370E-01
DAV:   5    -0.166384673563E+02    0.14450E-02   -0.61275E-03   160   0.153E-01    0.506E-02
DAV:   6    -0.166393102001E+02   -0.84284E-03   -0.38606E-04   160   0.557E-02    0.241E-02
DAV:   7    -0.166406816787E+02   -0.13715E-02   -0.29906E-04   240   0.397E-02    0.132E-02
DAV:   8    -0.166419793119E+02   -0.12976E-02   -0.32736E-04   240   0.358E-02    0.667E-03
DAV:   9    -0.166426375072E+02   -0.65820E-03   -0.13655E-04   240   0.244E-02    0.505E-03
DAV:  10    -0.166432337773E+02   -0.59627E-03   -0.10534E-04   240   0.203E-02    0.263E-03
DAV:  11    -0.166434318479E+02   -0.19807E-03   -0.17151E-05   240   0.937E-03    0.162E-03
DAV:  12    -0.166437080384E+02   -0.27619E-03   -0.11276E-05   240   0.690E-03    0.106E-03
DAV:  13    -0.166438135438E+02   -0.10551E-03   -0.38559E-06   240   0.462E-03    0.534E-04
DAV:  14    -0.166438758495E+02   -0.62306E-04   -0.63822E-07   160   0.180E-03    0.380E-04
DAV:  15    -0.166439262766E+02   -0.50427E-04   -0.52907E-07   240   0.194E-03    0.212E-04
DAV:  16    -0.166439389554E+02   -0.12679E-04   -0.23481E-07   160   0.142E-03    0.125E-04
DAV:  17    -0.166439418944E+02   -0.29390E-05   -0.33459E-08   160   0.493E-04
   6 F= -.16643942E+02 E0= -.16643942E+02  d E =-.898433E+01  mag=    -0.0000
 curvature: -11.62 expect dE=-0.408E+00 dE for cont linesearch -0.408E+00
 ZBRENT: bracketing found
 ZBRENT: interpolating
 opt :  41.8748  next Energy=   -16.760622 (dE=-0.910E+01)
 bond charge predicted
       N       E                     dE             d eps       ncg     rms          rms(c)
DAV:   1    -0.165024480125E+02    0.14149E+00   -0.16523E+01   160   0.911E+00    0.141E+00
DAV:   2    -0.164616547532E+02    0.40793E-01   -0.16472E-01   240   0.915E-01    0.688E-01
DAV:   3    -0.164504079815E+02    0.11247E-01   -0.54726E-02   160   0.431E-01    0.161E-01
DAV:   4    -0.164505441275E+02   -0.13615E-03   -0.11838E-03   160   0.770E-02    0.783E-02
DAV:   5    -0.164506561258E+02   -0.11200E-03   -0.14634E-04   240   0.330E-02    0.118E-02
DAV:   6    -0.164507097976E+02   -0.53672E-04   -0.10940E-05   160   0.944E-03    0.704E-03
DAV:   7    -0.164508365966E+02   -0.12680E-03   -0.18616E-05   160   0.901E-03    0.283E-03
DAV:   8    -0.164508947022E+02   -0.58106E-04   -0.45025E-06   160   0.556E-03    0.276E-03
DAV:   9    -0.164509872469E+02   -0.92545E-04   -0.48205E-06   160   0.460E-03    0.111E-03
DAV:  10    -0.164510429473E+02   -0.55700E-04   -0.26910E-06   240   0.385E-03    0.700E-04
DAV:  11    -0.164510905631E+02   -0.47616E-04   -0.91112E-07   240   0.266E-03    0.457E-04
DAV:  12    -0.164511482129E+02   -0.57650E-04   -0.85829E-07   240   0.227E-03    0.241E-04
DAV:  13    -0.164511693593E+02   -0.21146E-04   -0.16025E-07   160   0.101E-03    0.187E-04
DAV:  14    -0.164511709927E+02   -0.16334E-05   -0.25276E-07   160   0.102E-03
   7 F= -.16451171E+02 E0= -.16451171E+02  d E =-.879156E+01  mag=    -0.0000
 curvature:  -3.33 expect dE=-0.623E+00 dE for cont linesearch -0.623E+00
 ZBRENT: interpolating
 opt :  44.7542  next Energy=   -16.679179 (dE=-0.902E+01)
 bond charge predicted
       N       E                     dE             d eps       ncg     rms          rms(c)
DAV:   1    -0.166915452894E+02   -0.24038E+00   -0.79712E+00   160   0.630E+00    0.930E-01
DAV:   2    -0.166755598673E+02    0.15985E-01   -0.84427E-02   240   0.680E-01    0.495E-01
DAV:   3    -0.166696523997E+02    0.59075E-02   -0.31517E-02   240   0.329E-01    0.111E-01
DAV:   4    -0.166697119886E+02   -0.59589E-04   -0.10072E-03   240   0.606E-02    0.624E-02
DAV:   5    -0.166698047778E+02   -0.92789E-04   -0.10240E-04   240   0.278E-02    0.727E-03
DAV:   6    -0.166698482236E+02   -0.43446E-04   -0.59078E-06   160   0.678E-03    0.391E-03
DAV:   7    -0.166699195265E+02   -0.71303E-04   -0.90149E-06   240   0.632E-03    0.201E-03
DAV:   8    -0.166699453530E+02   -0.25826E-04   -0.13588E-06   240   0.310E-03    0.135E-03
DAV:   9    -0.166699994116E+02   -0.54059E-04   -0.39940E-06   240   0.369E-03    0.702E-04
DAV:  10    -0.166700120346E+02   -0.12623E-04   -0.60019E-07   160   0.202E-03    0.457E-04
DAV:  11    -0.166700277578E+02   -0.15723E-04   -0.62542E-07   160   0.124E-03    0.240E-04
DAV:  12    -0.166700302861E+02   -0.25283E-05   -0.22643E-07   160   0.891E-04
   8 F= -.16670030E+02 E0= -.16670030E+02  d E =-.901042E+01  mag=    -0.0000
 curvature:  -0.19 expect dE=-0.327E-03 dE for cont linesearch -0.327E-03
 ZBRENT: interpolating
 opt :  44.9810  next Energy=   -16.671459 (dE=-0.901E+01)
 bond charge predicted
       N       E                     dE             d eps       ncg     rms          rms(c)
DAV:   1    -0.166717283016E+02   -0.17005E-02   -0.50470E-02   160   0.506E-01    0.782E-02
DAV:   2    -0.166716119034E+02    0.11640E-03   -0.58106E-04   240   0.533E-02    0.410E-02
DAV:   3    -0.166715770229E+02    0.34880E-04   -0.21289E-04   240   0.273E-02    0.904E-03
DAV:   4    -0.166715765380E+02    0.48494E-06   -0.62678E-06   160   0.485E-03
   9 F= -.16671577E+02 E0= -.16671577E+02  d E =-.901197E+01  mag=     0.0000
 curvature:  -0.82 expect dE=-0.805E-05 dE for cont linesearch -0.805E-05
 trial: gam=-0.01026 g(F)=  0.980E-05 g(S)=  0.000E+00 ort = 0.945E-03 (trialstep = 0.980E+01)
 search vector abs. value=  0.115E-08
 reached required accuracy - stopping structural energy minimisation
 writing wavefunctions
