 running on   20 total cores
 distrk:  each k-point on   20 cores,    1 groups
 distr:  one band on    1 cores,   20 groups
 using from now: INCAR     
 vasp.5.4.1 05Feb16 (build Sep 02 2018 21:45:25) complex                        
  
 POSCAR found type information on POSCAR  Cu
 POSCAR found :  1 types and      16 ions
 scaLAPACK will be used

 ----------------------------------------------------------------------------- 
|                                                                             |
|           W    W    AA    RRRRR   N    N  II  N    N   GGGG   !!!           |
|           W    W   A  A   R    R  NN   N  II  NN   N  G    G  !!!           |
|           W    W  A    A  R    R  N N  N  II  N N  N  G       !!!           |
|           W WW W  AAAAAA  RRRRR   N  N N  II  N  N N  G  GGG   !            |
|           WW  WW  A    A  R   R   N   NN  II  N   NN  G    G                |
|           W    W  A    A  R    R  N    N  II  N    N   GGGG   !!!           |
|                                                                             |
|      For optimal performance we recommend to set                            |
|        NCORE= 4 - approx SQRT( number of cores)                             |
|      NCORE specifies how many cores store one orbital (NPAR=cpu/NCORE).     |
|      This setting can  greatly improve the performance of VASP for DFT.     |
|      The default, NPAR=number of cores might be grossly inefficient         |
|      on modern multi-core architectures or massively parallel machines.     |
|      Do your own testing !!!!                                               |
|      Unfortunately you need to use the default for GW and RPA calculations. |
|      (for HF NCORE is supported but not extensively tested yet)             |
|                                                                             |
 ----------------------------------------------------------------------------- 

 LDA part: xc-table for Ceperly-Alder, standard interpolation
 POSCAR, INCAR and KPOINTS ok, starting setup
 WARNING: small aliasing (wrap around) errors must be expected
 FFT: planning ...
 WAVECAR not read
 entering main loop
       N       E                     dE             d eps       ncg     rms          rms(c)
DAV:   1     0.117311251912E+04    0.11731E+04   -0.76562E+04  3600   0.151E+03
DAV:   2     0.205166640536E+02   -0.11526E+04   -0.11035E+04  3600   0.334E+02
DAV:   3    -0.649673479990E+02   -0.85484E+02   -0.84232E+02  4160   0.123E+02
DAV:   4    -0.662828071946E+02   -0.13155E+01   -0.13142E+01  4060   0.176E+01
DAV:   5    -0.662913539142E+02   -0.85467E-02   -0.85466E-02  4320   0.998E-01    0.254E+01
DAV:   6    -0.603587832288E+02    0.59326E+01   -0.11940E+02  4200   0.793E+01    0.128E+01
DAV:   7    -0.548236956763E+02    0.55351E+01   -0.23332E+01  4340   0.424E+01    0.281E+00
DAV:   8    -0.549395683972E+02   -0.11587E+00   -0.40304E+00  4220   0.271E+01    0.263E+00
DAV:   9    -0.549044784276E+02    0.35090E-01   -0.14330E+00  4640   0.150E+01    0.235E+00
DAV:  10    -0.548425860775E+02    0.61892E-01   -0.65271E-01  4500   0.990E+00    0.185E+00
DAV:  11    -0.547831359949E+02    0.59450E-01   -0.44767E-01  4180   0.593E+00    0.279E-01
DAV:  12    -0.547800155735E+02    0.31204E-02   -0.12922E-01  4060   0.364E+00    0.468E-01
DAV:  13    -0.547739108195E+02    0.61048E-02   -0.52533E-02  4180   0.316E+00    0.215E-01
DAV:  14    -0.547711989283E+02    0.27119E-02   -0.20027E-02  4140   0.139E+00    0.147E-01
DAV:  15    -0.547697574335E+02    0.14415E-02   -0.38545E-03  3800   0.410E-01    0.632E-02
DAV:  16    -0.547716481575E+02   -0.18907E-02   -0.19891E-02  5700   0.159E+00    0.112E-01
DAV:  17    -0.547727804605E+02   -0.11323E-02   -0.23036E-03  4120   0.309E-01    0.146E-01
DAV:  18    -0.547703530708E+02    0.24274E-02   -0.15903E-02  5480   0.156E+00    0.327E-02
DAV:  19    -0.547725438094E+02   -0.21907E-02   -0.58303E-03  5700   0.826E-01    0.548E-02
DAV:  20    -0.547728346877E+02   -0.29088E-03   -0.93280E-04  3940   0.140E-01    0.590E-02
DAV:  21    -0.547726865991E+02    0.14809E-03   -0.43784E-04  3940   0.259E-01    0.329E-02
DAV:  22    -0.547731760281E+02   -0.48943E-03   -0.47288E-03  6160   0.760E-01    0.391E-02
DAV:  23    -0.547731347870E+02    0.41241E-04   -0.33185E-04  4220   0.135E-01    0.263E-02
DAV:  24    -0.547730705132E+02    0.64274E-04   -0.12320E-04  2880   0.113E-01    0.132E-02
DAV:  25    -0.547730462252E+02    0.24288E-04   -0.17243E-04  3880   0.116E-01    0.611E-03
DAV:  26    -0.547730524313E+02   -0.62061E-05   -0.77554E-05  4080   0.554E-02
   1 F= -.54773052E+02 E0= -.54773009E+02  d E =-.547731E+02
 curvature:   0.00 expect dE= 0.000E+00 dE for cont linesearch  0.000E+00
 trial: gam= 0.00000 g(F)=  0.639E-06 g(S)=  0.000E+00 ort = 0.000E+00 (trialstep = 0.100E+01)
 search vector abs. value=  0.639E-06
 reached required accuracy - stopping structural energy minimisation
