 running on   20 total cores
 distrk:  each k-point on   20 cores,    1 groups
 distr:  one band on    1 cores,   20 groups
 using from now: INCAR     
 vasp.5.4.1 05Feb16 (build Sep 02 2018 21:45:25) complex                        
  
 POSCAR found type information on POSCAR  H 
 POSCAR found :  1 types and       2 ions
 scaLAPACK will be used

 ----------------------------------------------------------------------------- 
|                                                                             |
|           W    W    AA    RRRRR   N    N  II  N    N   GGGG   !!!           |
|           W    W   A  A   R    R  NN   N  II  NN   N  G    G  !!!           |
|           W    W  A    A  R    R  N N  N  II  N N  N  G       !!!           |
|           W WW W  AAAAAA  RRRRR   N  N N  II  N  N N  G  GGG   !            |
|           WW  WW  A    A  R   R   N   NN  II  N   NN  G    G                |
|           W    W  A    A  R    R  N    N  II  N    N   GGGG   !!!           |
|                                                                             |
|      For optimal performance we recommend to set                            |
|        NCORE= 4 - approx SQRT( number of cores)                             |
|      NCORE specifies how many cores store one orbital (NPAR=cpu/NCORE).     |
|      This setting can  greatly improve the performance of VASP for DFT.     |
|      The default, NPAR=number of cores might be grossly inefficient         |
|      on modern multi-core architectures or massively parallel machines.     |
|      Do your own testing !!!!                                               |
|      Unfortunately you need to use the default for GW and RPA calculations. |
|      (for HF NCORE is supported but not extensively tested yet)             |
|                                                                             |
 ----------------------------------------------------------------------------- 

 LDA part: xc-table for Ceperly-Alder, standard interpolation
 POSCAR, INCAR and KPOINTS ok, starting setup
 WARNING: small aliasing (wrap around) errors must be expected
 FFT: planning ...
 WAVECAR not read
 entering main loop
       N       E                     dE             d eps       ncg     rms          rms(c)
DAV:   1    -0.350752692837E+01   -0.35075E+01   -0.20450E+02   240   0.292E+01
DAV:   2    -0.641010806309E+01   -0.29026E+01   -0.29026E+01   360   0.811E+00
DAV:   3    -0.643146881690E+01   -0.21361E-01   -0.21361E-01   280   0.131E+00
DAV:   4    -0.643155296655E+01   -0.84150E-04   -0.84150E-04   480   0.529E-02
DAV:   5    -0.643155296773E+01   -0.11809E-08   -0.11684E-08   240   0.253E-04    0.275E+00
DAV:   6    -0.623797244952E+01    0.19358E+00   -0.92284E-02   260   0.329E-01    0.154E+00
DAV:   7    -0.611951742918E+01    0.11846E+00   -0.24490E-01   380   0.525E-01    0.180E-01
DAV:   8    -0.612039340882E+01   -0.87598E-03   -0.47878E-03   240   0.928E-02    0.123E-01
DAV:   9    -0.611907783091E+01    0.13156E-02   -0.21006E-03   400   0.558E-02    0.235E-02
DAV:  10    -0.612096291246E+01   -0.18851E-02   -0.18575E-03   240   0.739E-02    0.144E-02
DAV:  11    -0.612119723153E+01   -0.23432E-03   -0.16342E-05   360   0.685E-03    0.709E-03
DAV:  12    -0.612258574249E+01   -0.13885E-02   -0.10637E-03   280   0.461E-02    0.398E-03
DAV:  13    -0.612277531047E+01   -0.18957E-03   -0.18841E-05   280   0.649E-03    0.198E-03
DAV:  14    -0.612284677101E+01   -0.71461E-04   -0.27511E-06   280   0.331E-03    0.196E-03
DAV:  15    -0.612289043711E+01   -0.43666E-04   -0.63853E-06   320   0.330E-03    0.143E-03
DAV:  16    -0.612289469279E+01   -0.42557E-05   -0.63759E-08   320   0.607E-04
   1 F= -.61228947E+01 E0= -.61228947E+01  d E =-.612289E+01
 curvature:   0.00 expect dE= 0.000E+00 dE for cont linesearch  0.000E+00
 trial: gam= 0.00000 g(F)=  0.174E+00 g(S)=  0.000E+00 ort = 0.000E+00 (trialstep = 0.100E+01)
 search vector abs. value=  0.174E+00
 bond charge predicted
       N       E                     dE             d eps       ncg     rms          rms(c)
DAV:   1    -0.629229727112E+01   -0.16941E+00   -0.57603E-01   240   0.143E+00    0.229E-01
DAV:   2    -0.629171459053E+01    0.58268E-03   -0.51241E-03   280   0.138E-01    0.143E-01
DAV:   3    -0.629131548874E+01    0.39910E-03   -0.26545E-03   340   0.514E-02    0.379E-02
DAV:   4    -0.629130782872E+01    0.76600E-05   -0.18865E-04   240   0.157E-02    0.120E-02
DAV:   5    -0.629132768956E+01   -0.19861E-04   -0.32401E-05   240   0.762E-03    0.348E-03
DAV:   6    -0.629133782706E+01   -0.10137E-04   -0.24334E-06   280   0.201E-03    0.188E-03
DAV:   7    -0.629134666908E+01   -0.88420E-05   -0.25446E-06   240   0.228E-03
   2 F= -.62913467E+01 E0= -.62913467E+01  d E =-.168452E+00
 ZBRENT: can't locate minimum, use default step
 trial-energy change:   -0.168452  1 .order   -0.168106   -0.174106   -0.162106
 step:   4.0000(harm= 14.5095)  dis= 0.00000  next Energy=    -7.385986 (dE=-0.126E+01)
 bond charge predicted
       N       E                     dE             d eps       ncg     rms          rms(c)
DAV:   1    -0.670120388409E+01   -0.40987E+00   -0.55234E+00   240   0.443E+00    0.779E-01
DAV:   2    -0.669579141713E+01    0.54125E-02   -0.61883E-02   280   0.498E-01    0.524E-01
DAV:   3    -0.669045947798E+01    0.53319E-02   -0.35383E-02   280   0.197E-01    0.182E-01
DAV:   4    -0.668990425238E+01    0.55523E-03   -0.28841E-03   260   0.613E-02    0.328E-02
DAV:   5    -0.669016418803E+01   -0.25994E-03   -0.32319E-04   280   0.256E-02    0.147E-02
DAV:   6    -0.669018233375E+01   -0.18146E-04   -0.92428E-06   420   0.533E-03    0.990E-03
DAV:   7    -0.669032977132E+01   -0.14744E-03   -0.23381E-05   240   0.670E-03    0.312E-03
DAV:   8    -0.669040085022E+01   -0.71079E-04   -0.80891E-06   280   0.430E-03    0.317E-03
DAV:   9    -0.669045932561E+01   -0.58475E-04   -0.11789E-05   280   0.473E-03    0.276E-03
DAV:  10    -0.669046649192E+01   -0.71663E-05   -0.84352E-07   360   0.105E-03
   3 F= -.66904665E+01 E0= -.66904665E+01  d E =-.567572E+00
 curvature:  -2.86 expect dE=-0.147E+00 dE for cont linesearch -0.147E+00
 ZBRENT: increasing intervall
 opt :  10.0000  next Energy=    -6.852250 (dE=-0.729E+00)
 bond charge predicted
       N       E                     dE             d eps       ncg     rms          rms(c)
DAV:   1    -0.624348642212E+01    0.44697E+00   -0.26087E+01   240   0.945E+00    0.232E+00
DAV:   2    -0.620521561842E+01    0.38271E-01   -0.44894E-01   280   0.142E+00    0.161E+00
DAV:   3    -0.616342950908E+01    0.41786E-01   -0.27783E-01   320   0.626E-01    0.634E-01
DAV:   4    -0.615566205408E+01    0.77675E-02   -0.22936E-02   280   0.180E-01    0.502E-02
DAV:   5    -0.615676930257E+01   -0.11072E-02   -0.38868E-04   320   0.379E-02    0.221E-02
DAV:   6    -0.615721192199E+01   -0.44262E-03   -0.10475E-04   320   0.157E-02    0.964E-03
DAV:   7    -0.615755441264E+01   -0.34249E-03   -0.71372E-05   240   0.129E-02    0.430E-03
DAV:   8    -0.615772571903E+01   -0.17131E-03   -0.33104E-05   240   0.823E-03    0.358E-03
DAV:   9    -0.615782457204E+01   -0.98853E-04   -0.14942E-05   300   0.513E-03    0.168E-03
DAV:  10    -0.615786112693E+01   -0.36555E-04   -0.26310E-06   240   0.220E-03    0.693E-04
DAV:  11    -0.615787211409E+01   -0.10987E-04   -0.22842E-07   320   0.780E-04    0.451E-04
DAV:  12    -0.615787656268E+01   -0.44486E-05   -0.22291E-07   240   0.719E-04
   4 F= -.61578766E+01 E0= -.61578766E+01  d E =-.349819E-01
 curvature:  -3.15 expect dE=-0.295E+01 dE for cont linesearch -0.295E+01
 ZBRENT: bracketing found
 ZBRENT: interpolating
 opt :   5.1388  next Energy=    -6.744294 (dE=-0.621E+00)
 bond charge predicted
       N       E                     dE             d eps       ncg     rms          rms(c)
DAV:   1    -0.687706608818E+01   -0.71919E+00   -0.17080E+01   240   0.769E+00    0.234E+00
DAV:   2    -0.679717225514E+01    0.79894E-01   -0.16529E-01   280   0.599E-01    0.121E+00
DAV:   3    -0.677370019106E+01    0.23472E-01   -0.10327E-01   280   0.363E-01    0.117E-01
DAV:   4    -0.677399745978E+01   -0.29727E-03   -0.13799E-03   280   0.597E-02    0.689E-02
DAV:   5    -0.677416024962E+01   -0.16279E-03   -0.82472E-04   280   0.403E-02    0.193E-02
DAV:   6    -0.677417646733E+01   -0.16218E-04   -0.37454E-05   300   0.946E-03    0.827E-03
DAV:   7    -0.677420176717E+01   -0.25300E-04   -0.28587E-05   280   0.793E-03    0.399E-03
DAV:   8    -0.677423721616E+01   -0.35449E-04   -0.24367E-05   360   0.663E-03    0.275E-03
DAV:   9    -0.677430374986E+01   -0.66534E-04   -0.34844E-05   280   0.706E-03    0.400E-03
DAV:  10    -0.677433890901E+01   -0.35159E-04   -0.49623E-06   240   0.330E-03    0.205E-03
DAV:  11    -0.677434477669E+01   -0.58677E-05   -0.50971E-07   280   0.133E-03
   5 F= -.67743448E+01 E0= -.67743448E+01  d E =-.651450E+00
 curvature:  -0.06 expect dE=-0.842E-03 dE for cont linesearch -0.842E-03
 ZBRENT: interpolating
 opt :   6.2983  next Energy=    -6.806862 (dE=-0.684E+00)
 bond charge predicted
       N       E                     dE             d eps       ncg     rms          rms(c)
DAV:   1    -0.680311021725E+01   -0.28771E-01   -0.95082E-01   240   0.183E+00    0.429E-01
DAV:   2    -0.680074175547E+01    0.23685E-02   -0.67433E-03   280   0.162E-01    0.261E-01
DAV:   3    -0.679937103120E+01    0.13707E-02   -0.62874E-03   320   0.882E-02    0.518E-02
DAV:   4    -0.679936231401E+01    0.87172E-05   -0.17390E-04   280   0.165E-02    0.138E-02
DAV:   5    -0.679941451433E+01   -0.52200E-04   -0.41804E-05   280   0.901E-03    0.334E-03
DAV:   6    -0.679943281664E+01   -0.18302E-04   -0.19182E-06   280   0.212E-03    0.274E-03
DAV:   7    -0.679945005125E+01   -0.17235E-04   -0.22444E-06   240   0.221E-03    0.608E-04
DAV:   8    -0.679946346555E+01   -0.13414E-04   -0.14269E-06   280   0.187E-03    0.598E-04
DAV:   9    -0.679946938427E+01   -0.59187E-05   -0.70874E-07   240   0.110E-03
   6 F= -.67994694E+01 E0= -.67994694E+01  d E =-.676575E+00
 curvature:  -2.22 expect dE=-0.136E-02 dE for cont linesearch -0.136E-02
 ZBRENT: interpolating
 opt :   6.1015  next Energy=    -6.800485 (dE=-0.678E+00)
 bond charge predicted
       N       E                     dE             d eps       ncg     rms          rms(c)
DAV:   1    -0.680047176579E+01   -0.10083E-02   -0.27959E-02   280   0.314E-01    0.794E-02
DAV:   2    -0.680038380579E+01    0.87960E-04   -0.18186E-04   320   0.236E-02    0.450E-02
DAV:   3    -0.680034003968E+01    0.43766E-04   -0.16216E-04   280   0.147E-02    0.531E-03
DAV:   4    -0.680034068922E+01   -0.64954E-06   -0.25183E-06   240   0.223E-03
   7 F= -.68003407E+01 E0= -.68003407E+01  d E =-.677446E+00
 curvature:  -1.66 expect dE=-0.181E-04 dE for cont linesearch -0.181E-04
 trial: gam=-0.00785 g(F)=  0.109E-04 g(S)=  0.000E+00 ort = 0.138E-02 (trialstep = 0.202E+01)
 search vector abs. value=  0.783E-09
 reached required accuracy - stopping structural energy minimisation
