 running on   20 total cores
 distrk:  each k-point on   20 cores,    1 groups
 distr:  one band on    1 cores,   20 groups
 using from now: INCAR     
 vasp.5.4.1 05Feb16 (build Sep 02 2018 21:45:25) complex                        
  
 POSCAR found type information on POSCAR  Cu H 
 POSCAR found :  2 types and      65 ions
 scaLAPACK will be used

 ----------------------------------------------------------------------------- 
|                                                                             |
|           W    W    AA    RRRRR   N    N  II  N    N   GGGG   !!!           |
|           W    W   A  A   R    R  NN   N  II  NN   N  G    G  !!!           |
|           W    W  A    A  R    R  N N  N  II  N N  N  G       !!!           |
|           W WW W  AAAAAA  RRRRR   N  N N  II  N  N N  G  GGG   !            |
|           WW  WW  A    A  R   R   N   NN  II  N   NN  G    G                |
|           W    W  A    A  R    R  N    N  II  N    N   GGGG   !!!           |
|                                                                             |
|      For optimal performance we recommend to set                            |
|        NCORE= 4 - approx SQRT( number of cores)                             |
|      NCORE specifies how many cores store one orbital (NPAR=cpu/NCORE).     |
|      This setting can  greatly improve the performance of VASP for DFT.     |
|      The default, NPAR=number of cores might be grossly inefficient         |
|      on modern multi-core architectures or massively parallel machines.     |
|      Do your own testing !!!!                                               |
|      Unfortunately you need to use the default for GW and RPA calculations. |
|      (for HF NCORE is supported but not extensively tested yet)             |
|                                                                             |
 ----------------------------------------------------------------------------- 

 LDA part: xc-table for Ceperly-Alder, standard interpolation
 POSCAR, INCAR and KPOINTS ok, starting setup
 WARNING: small aliasing (wrap around) errors must be expected
 FFT: planning ...
 WAVECAR not read
 entering main loop
       N       E                     dE             d eps       ncg     rms          rms(c)
DAV:   1     0.556220063293E+04    0.55622E+04   -0.31062E+05 14080   0.190E+03
DAV:   2     0.366421640573E+03   -0.51958E+04   -0.49432E+04 14080   0.421E+02
DAV:   3    -0.251100928169E+03   -0.61752E+03   -0.57225E+03 14240   0.174E+02
DAV:   4    -0.276583631518E+03   -0.25483E+02   -0.25205E+02 15220   0.408E+01
DAV:   5    -0.276779464844E+03   -0.19583E+00   -0.19569E+00 15200   0.323E+00    0.532E+01
DAV:   6    -0.250712819495E+03    0.26067E+02   -0.53949E+02 15360   0.906E+01    0.269E+01
DAV:   7    -0.227938554841E+03    0.22774E+02   -0.10553E+02 15900   0.445E+01    0.401E+00
DAV:   8    -0.228151541320E+03   -0.21299E+00   -0.91655E+00 15880   0.242E+01    0.528E+00
DAV:   9    -0.227852442955E+03    0.29910E+00   -0.29953E+00 15580   0.189E+01    0.363E+00
DAV:  10    -0.227682589302E+03    0.16985E+00   -0.13941E+00 17340   0.116E+01    0.289E+00
DAV:  11    -0.227511822169E+03    0.17077E+00   -0.51998E-01 15240   0.457E+00    0.777E-01
DAV:  12    -0.227509083484E+03    0.27387E-02   -0.15845E-01 15020   0.247E+00    0.390E-01
DAV:  13    -0.227499960867E+03    0.91226E-02   -0.52606E-02 14680   0.162E+00    0.236E-01
DAV:  14    -0.227491984217E+03    0.79767E-02   -0.15886E-02 14900   0.855E-01    0.131E-01
DAV:  15    -0.227488810550E+03    0.31737E-02   -0.40965E-03 14740   0.584E-01    0.108E-01
DAV:  16    -0.227488565762E+03    0.24479E-03   -0.22237E-03 14660   0.341E-01    0.750E-02
DAV:  17    -0.227491434384E+03   -0.28686E-02   -0.26678E-03 14480   0.422E-01    0.718E-02
DAV:  18    -0.227496315183E+03   -0.48808E-02   -0.16936E-03 14640   0.159E-01    0.547E-02
DAV:  19    -0.227498879514E+03   -0.25643E-02   -0.58602E-04 14780   0.162E-01    0.517E-02
DAV:  20    -0.227503641626E+03   -0.47621E-02   -0.10203E-02 25240   0.900E-01    0.107E-01
DAV:  21    -0.227503204396E+03    0.43723E-03   -0.90174E-04 18200   0.167E-01    0.839E-02
DAV:  22    -0.227502797688E+03    0.40671E-03   -0.57639E-04 21380   0.170E-01    0.552E-02
DAV:  23    -0.227502754012E+03    0.43676E-04   -0.36749E-04 23240   0.149E-01    0.290E-02
DAV:  24    -0.227502871538E+03   -0.11753E-03   -0.35456E-04 14620   0.599E-02    0.370E-02
DAV:  25    -0.227502943941E+03   -0.72403E-04   -0.41556E-05 10000   0.565E-02    0.444E-02
DAV:  26    -0.227503190376E+03   -0.24643E-03   -0.21039E-04 10380   0.143E-01    0.676E-02
DAV:  27    -0.227502893344E+03    0.29703E-03   -0.37906E-04 15300   0.202E-01    0.329E-02
DAV:  28    -0.227502823143E+03    0.70201E-04   -0.57435E-04 19700   0.238E-01    0.946E-03
DAV:  29    -0.227502845593E+03   -0.22450E-04   -0.69506E-05 19740   0.534E-02    0.199E-02
DAV:  30    -0.227502846210E+03   -0.61688E-06   -0.22990E-05 14700   0.155E-02    0.194E-02
DAV:  31    -0.227502846275E+03   -0.65222E-07   -0.26832E-07  9020   0.169E-03
   1 F= -.22750285E+03 E0= -.22750221E+03  d E =-.126673E-02
 Finite differences POTIM= 0.02000 DOF=   3
 bond charge predicted
       N       E                     dE             d eps       ncg     rms          rms(c)
DAV:   1    -0.227502342668E+03    0.50354E-03   -0.11995E-01 22380   0.319E-01    0.905E-02
DAV:   2    -0.227502761029E+03   -0.41836E-03   -0.42662E-03 33760   0.607E-01    0.968E-02
DAV:   3    -0.227502384150E+03    0.37688E-03   -0.32809E-03 29160   0.643E-01    0.525E-02
DAV:   4    -0.227502319409E+03    0.64741E-04   -0.39480E-04 29460   0.244E-01    0.346E-02
DAV:   5    -0.227502305714E+03    0.13695E-04   -0.14474E-04 22980   0.120E-01    0.686E-03
DAV:   6    -0.227502308119E+03   -0.24050E-05   -0.39838E-05 22860   0.261E-02    0.467E-03
DAV:   7    -0.227502307797E+03    0.32208E-06   -0.34517E-06 21840   0.159E-02
   2 F= -.22750231E+03 E0= -.22750167E+03  d E =-.126973E-02
 Finite differences progress:
  Degree of freedom:   1/  3
  Displacement:        1/  2
  Total:               1/  6
 bond charge predicted
       N       E                     dE             d eps       ncg     rms          rms(c)
DAV:   1    -0.227502403514E+03   -0.95395E-04   -0.43456E-01 22040   0.604E-01    0.175E-01
DAV:   2    -0.227502501510E+03   -0.97996E-04   -0.65469E-03 23300   0.329E-01    0.100E-01
DAV:   3    -0.227502474560E+03    0.26951E-04   -0.12900E-03 24420   0.505E-01    0.101E-01
DAV:   4    -0.227502308307E+03    0.16625E-03   -0.63695E-04 24940   0.300E-01    0.179E-02
DAV:   5    -0.227502316269E+03   -0.79611E-05   -0.28378E-04 32540   0.141E-01    0.136E-02
DAV:   6    -0.227502311574E+03    0.46944E-05   -0.62266E-05 28340   0.640E-02    0.789E-03
DAV:   7    -0.227502310784E+03    0.78973E-06   -0.96955E-06 22920   0.247E-02
   3 F= -.22750231E+03 E0= -.22750168E+03  d E =-.126963E-02
 Finite differences progress:
  Degree of freedom:   1/  3
  Displacement:        2/  2
  Total:               2/  6
 bond charge predicted
       N       E                     dE             d eps       ncg     rms          rms(c)
DAV:   1    -0.227502419143E+03   -0.10757E-03   -0.16441E-01 22060   0.349E-01    0.125E-01
DAV:   2    -0.227502397894E+03    0.21249E-04   -0.25902E-03 23940   0.230E-01    0.711E-02
DAV:   3    -0.227502384513E+03    0.13381E-04   -0.64659E-04 24580   0.361E-01    0.727E-02
DAV:   4    -0.227502316839E+03    0.67674E-04   -0.46829E-04 25280   0.256E-01    0.244E-02
DAV:   5    -0.227502297700E+03    0.19139E-04   -0.22718E-04 32320   0.144E-01    0.697E-03
DAV:   6    -0.227502298611E+03   -0.91080E-06   -0.34762E-05 23920   0.297E-02    0.592E-03
DAV:   7    -0.227502298100E+03    0.51086E-06   -0.54125E-06 22980   0.198E-02
   4 F= -.22750230E+03 E0= -.22750166E+03  d E =-.126976E-02
 Finite differences progress:
  Degree of freedom:   2/  3
  Displacement:        1/  2
  Total:               3/  6
 bond charge predicted
       N       E                     dE             d eps       ncg     rms          rms(c)
DAV:   1    -0.227502530505E+03   -0.23189E-03   -0.34747E-01 22080   0.528E-01    0.175E-01
DAV:   2    -0.227502517976E+03    0.12530E-04   -0.54039E-03 24160   0.327E-01    0.100E-01
DAV:   3    -0.227502487769E+03    0.30206E-04   -0.12620E-03 24560   0.505E-01    0.102E-01
DAV:   4    -0.227502315456E+03    0.17231E-03   -0.64192E-04 25120   0.296E-01    0.162E-02
DAV:   5    -0.227502325529E+03   -0.10073E-04   -0.25653E-04 32460   0.126E-01    0.129E-02
DAV:   6    -0.227502321423E+03    0.41060E-05   -0.56268E-05 27340   0.599E-02    0.780E-03
DAV:   7    -0.227502320537E+03    0.88620E-06   -0.97367E-06 22920   0.247E-02
   5 F= -.22750232E+03 E0= -.22750169E+03  d E =-.126964E-02
 Finite differences progress:
  Degree of freedom:   2/  3
  Displacement:        2/  2
  Total:               4/  6
 bond charge predicted
       N       E                     dE             d eps       ncg     rms          rms(c)
DAV:   1    -0.227501936899E+03    0.38452E-03   -0.23941E-01 14080   0.438E-01    0.100E-01
DAV:   2    -0.227502092149E+03   -0.15525E-03   -0.33587E-03 14940   0.138E-01    0.606E-02
DAV:   3    -0.227502074498E+03    0.17650E-04   -0.42831E-04 15620   0.263E-01    0.571E-02
DAV:   4    -0.227502016234E+03    0.58264E-04   -0.36895E-04 15600   0.237E-01    0.207E-02
DAV:   5    -0.227501997698E+03    0.18536E-04   -0.14736E-04 20100   0.124E-01    0.519E-03
DAV:   6    -0.227501999299E+03   -0.16007E-05   -0.25276E-05 14780   0.239E-02    0.463E-03
DAV:   7    -0.227501999794E+03   -0.49497E-06   -0.45774E-06 14720   0.170E-02
   6 F= -.22750200E+03 E0= -.22750140E+03  d E =-.120023E-02
 Finite differences progress:
  Degree of freedom:   3/  3
  Displacement:        1/  2
  Total:               5/  6
 bond charge predicted
       N       E                     dE             d eps       ncg     rms          rms(c)
DAV:   1    -0.227501793335E+03    0.20596E-03   -0.48407E-01 14080   0.606E-01    0.131E-01
DAV:   2    -0.227502081259E+03   -0.28792E-03   -0.51211E-03 15020   0.161E-01    0.794E-02
DAV:   3    -0.227502199078E+03   -0.11782E-03   -0.11021E-03 15520   0.405E-01    0.807E-02
DAV:   4    -0.227502102706E+03    0.96372E-04   -0.14472E-03 16240   0.444E-01    0.412E-02
DAV:   5    -0.227502027279E+03    0.75427E-04   -0.33832E-04 19840   0.209E-01    0.578E-03
DAV:   6    -0.227502031179E+03   -0.38992E-05   -0.56245E-05 14660   0.308E-02    0.682E-03
DAV:   7    -0.227502030844E+03    0.33500E-06   -0.73499E-06 15000   0.217E-02
   7 F= -.22750203E+03 E0= -.22750137E+03  d E =-.132506E-02
 Finite differences progress:
  Degree of freedom:   3/  3
  Displacement:        2/  2
  Total:               6/  6
 Finite differences POTIM=  2.000000000000000E-002
 writing wavefunctions
