 running on   20 total cores
 distrk:  each k-point on   20 cores,    1 groups
 distr:  one band on    1 cores,   20 groups
 using from now: INCAR     
 vasp.5.4.1 05Feb16 (build Sep 02 2018 21:45:25) complex                        
  
 POSCAR found type information on POSCAR  Cu H 
 POSCAR found :  2 types and      33 ions
 scaLAPACK will be used

 ----------------------------------------------------------------------------- 
|                                                                             |
|           W    W    AA    RRRRR   N    N  II  N    N   GGGG   !!!           |
|           W    W   A  A   R    R  NN   N  II  NN   N  G    G  !!!           |
|           W    W  A    A  R    R  N N  N  II  N N  N  G       !!!           |
|           W WW W  AAAAAA  RRRRR   N  N N  II  N  N N  G  GGG   !            |
|           WW  WW  A    A  R   R   N   NN  II  N   NN  G    G                |
|           W    W  A    A  R    R  N    N  II  N    N   GGGG   !!!           |
|                                                                             |
|      For optimal performance we recommend to set                            |
|        NCORE= 4 - approx SQRT( number of cores)                             |
|      NCORE specifies how many cores store one orbital (NPAR=cpu/NCORE).     |
|      This setting can  greatly improve the performance of VASP for DFT.     |
|      The default, NPAR=number of cores might be grossly inefficient         |
|      on modern multi-core architectures or massively parallel machines.     |
|      Do your own testing !!!!                                               |
|      Unfortunately you need to use the default for GW and RPA calculations. |
|      (for HF NCORE is supported but not extensively tested yet)             |
|                                                                             |
 ----------------------------------------------------------------------------- 


 ----------------------------------------------------------------------------- 
|                                                                             |
|  ADVICE TO THIS USER RUNNING 'VASP/VAMP'   (HEAR YOUR MASTER'S VOICE ...):  |
|                                                                             |
|      You have a (more or less) 'large supercell' and for larger cells       |
|      it might be more efficient to use real space projection operators      |
|      So try LREAL= Auto  in the INCAR   file.                               |
|      Mind: If you want to do a very accurate calculations keep the          |
|      reciprocal projection scheme          (i.e. LREAL=.FALSE.)             |
|                                                                             |
 ----------------------------------------------------------------------------- 

 LDA part: xc-table for Ceperly-Alder, standard interpolation

 ----------------------------------------------------------------------------- 
|                                                                             |
|           W    W    AA    RRRRR   N    N  II  N    N   GGGG   !!!           |
|           W    W   A  A   R    R  NN   N  II  NN   N  G    G  !!!           |
|           W    W  A    A  R    R  N N  N  II  N N  N  G       !!!           |
|           W WW W  AAAAAA  RRRRR   N  N N  II  N  N N  G  GGG   !            |
|           WW  WW  A    A  R   R   N   NN  II  N   NN  G    G                |
|           W    W  A    A  R    R  N    N  II  N    N   GGGG   !!!           |
|                                                                             |
|      The distance between some ions is very small                           |
|      please check the nearest neigbor list in the OUTCAR file               |
|          I HOPE YOU KNOW, WHAT YOU ARE  DOING                               |
|                                                                             |
 ----------------------------------------------------------------------------- 

 POSCAR, INCAR and KPOINTS ok, starting setup
 WARNING: small aliasing (wrap around) errors must be expected
 FFT: planning ...
 WAVECAR not read
 entering main loop
       N       E                     dE             d eps       ncg     rms          rms(c)
DAV:   1     0.394515015266E+04    0.39452E+04   -0.15099E+05 19420   0.242E+03
DAV:   2     0.117105871259E+04   -0.27741E+04   -0.26563E+04 19360   0.502E+02
DAV:   3     0.819056287943E+03   -0.35200E+03   -0.32598E+03 19520   0.194E+02
DAV:   4     0.807265254645E+03   -0.11791E+02   -0.11696E+02 21580   0.434E+01
DAV:   5     0.807186272249E+03   -0.78982E-01   -0.78926E-01 21140   0.316E+00    0.388E+01
DAV:   6     0.825667722543E+03    0.18481E+02   -0.25674E+02 22220   0.945E+01    0.181E+01
DAV:   7     0.836312216451E+03    0.10644E+02   -0.44858E+01 22280   0.482E+01    0.321E+00
DAV:   8     0.836273348727E+03   -0.38868E-01   -0.46985E+00 22260   0.205E+01    0.359E+00
DAV:   9     0.836514949746E+03    0.24160E+00   -0.72057E-01 23940   0.917E+00    0.229E+00
DAV:  10     0.836635381579E+03    0.12043E+00   -0.24749E-01 25340   0.483E+00    0.595E-01
DAV:  11     0.836634873455E+03   -0.50812E-03   -0.10581E-01 22000   0.391E+00    0.260E-01
DAV:  12     0.836634967133E+03    0.93679E-04   -0.22102E-02 22860   0.132E+00    0.201E-01
DAV:  13     0.836635326284E+03    0.35915E-03   -0.25976E-03 21800   0.498E-01    0.160E-01
DAV:  14     0.836635645203E+03    0.31892E-03   -0.49819E-04 22060   0.261E-01    0.932E-02
DAV:  15     0.836635706634E+03    0.61431E-04   -0.11558E-03 23780   0.211E-01    0.411E-02
DAV:  16     0.836635725637E+03    0.19003E-04   -0.13873E-04 21020   0.916E-02    0.252E-02
DAV:  17     0.836635742754E+03    0.17117E-04   -0.12415E-04 19780   0.732E-02    0.130E-02
DAV:  18     0.836635743529E+03    0.77433E-06   -0.13123E-05 12040   0.331E-02
   1 F= 0.83663574E+03 E0= 0.83663612E+03  d E =0.836636E+03
 curvature:   0.00 expect dE= 0.000E+00 dE for cont linesearch  0.000E+00
 trial: gam= 0.00000 g(F)=  0.189E+07 g(S)=  0.000E+00 ort = 0.000E+00 (trialstep = 0.100E+01)
 search vector abs. value=  0.189E+07
 bond charge predicted
       N       E                     dE             d eps       ncg     rms          rms(c)
DAV:   1    -0.559693830605E+02   -0.89261E+03   -0.51828E+03 19880   0.141E+02    0.379E+01
DAV:   2    -0.116475156063E+03   -0.60506E+02   -0.65330E+02 21660   0.240E+02    0.294E+01
DAV:   3    -0.845547272072E+02    0.31920E+02   -0.26864E+02 23300   0.703E+01    0.163E+01
DAV:   4    -0.790862833116E+02    0.54684E+01   -0.27819E+01 24520   0.364E+01    0.120E+01
DAV:   5    -0.745018967788E+02    0.45844E+01   -0.61538E+00 23460   0.234E+01    0.818E+00
DAV:   6    -0.722559560787E+02    0.22459E+01   -0.43057E+00 29320   0.213E+01    0.422E+00
DAV:   7    -0.719911455371E+02    0.26481E+00   -0.29799E+00 32120   0.131E+01    0.168E+00
DAV:   8    -0.720109782690E+02   -0.19833E-01   -0.85277E-01 28940   0.573E+00    0.583E-01
DAV:   9    -0.720220763395E+02   -0.11098E-01   -0.16201E-01 27280   0.378E+00    0.466E-01
DAV:  10    -0.720286042884E+02   -0.65279E-02   -0.11904E-01 20940   0.263E+00    0.155E-01
DAV:  11    -0.720291054815E+02   -0.50119E-03   -0.83688E-03 27020   0.122E+00    0.169E-01
DAV:  12    -0.720300735471E+02   -0.96807E-03   -0.14257E-02 21900   0.177E+00    0.201E-01
DAV:  13    -0.720297223324E+02    0.35121E-03   -0.22008E-03 21900   0.492E-01    0.129E-01
DAV:  14    -0.720293706205E+02    0.35171E-03   -0.64273E-04 26240   0.338E-01    0.612E-02
DAV:  15    -0.720292954244E+02    0.75196E-04   -0.40901E-04 28280   0.199E-01    0.205E-02
DAV:  16    -0.720292958413E+02   -0.41699E-06   -0.17785E-04 25600   0.129E-01    0.136E-02
DAV:  17    -0.720293063821E+02   -0.10541E-04   -0.13871E-04 20240   0.440E-02    0.103E-02
DAV:  18    -0.720293033399E+02    0.30423E-05   -0.38854E-06 11180   0.325E-02
   2 F= -.72029303E+02 E0= -.72029184E+02  d E =-.908665E+03
 trial-energy change: -908.665047  1 .order************************************
 step:   1.0085(harm=  1.0085)  dis=55.65959  next Energy=************* (dE=-0.955E+06)
 bond charge predicted
       N       E                     dE             d eps       ncg     rms          rms(c)
DAV:   1    -0.899392189299E+02   -0.17910E+02   -0.28540E+03 20120   0.142E+02    0.174E+01
DAV:   2    -0.995061032367E+02   -0.95669E+01   -0.17558E+02 21560   0.123E+02    0.147E+01
DAV:   3    -0.920265736067E+02    0.74795E+01   -0.37669E+01 22220   0.514E+01    0.556E+00
DAV:   4    -0.917296309763E+02    0.29694E+00   -0.95992E+00 24960   0.242E+01    0.260E+00
DAV:   5    -0.917627697595E+02   -0.33139E-01   -0.28739E+00 32280   0.170E+01    0.169E+00
DAV:   6    -0.918239038438E+02   -0.61134E-01   -0.10918E+00 22180   0.698E+00    0.790E-01
DAV:   7    -0.918303265521E+02   -0.64227E-02   -0.31524E-01 21820   0.643E+00    0.652E-01
DAV:   8    -0.918292052529E+02    0.11213E-02   -0.60909E-02 21020   0.249E+00    0.210E-01
DAV:   9    -0.918303670421E+02   -0.11618E-02   -0.11319E-02 21780   0.816E-01    0.129E-01
DAV:  10    -0.918304885500E+02   -0.12151E-03   -0.38103E-03 21860   0.785E-01    0.726E-02
DAV:  11    -0.918304630740E+02    0.25476E-04   -0.69015E-04 23180   0.306E-01    0.289E-02
DAV:  12    -0.918304637510E+02   -0.67696E-06   -0.18822E-04 21960   0.153E-01    0.209E-02
DAV:  13    -0.918304621019E+02    0.16490E-05   -0.68937E-05 20620   0.909E-02
   3 F= -.91830462E+02 E0= -.91830129E+02  d E =-.928466E+03
 curvature:  -0.50 expect dE=-0.221E+02 dE for cont linesearch -0.507E-01
 ZBRENT: interpolating
 opt :   1.0083  next Energy=   -91.879840 (dE=-0.929E+03)
 bond charge predicted
       N       E                     dE             d eps       ncg     rms          rms(c)
DAV:   1    -0.919361381606E+02   -0.10567E+00   -0.26642E+00 19480   0.300E+00    0.164E-01
DAV:   2    -0.919400759306E+02   -0.39378E-02   -0.44866E-02 21120   0.985E-01    0.144E-01
DAV:   3    -0.919399858546E+02    0.90076E-04   -0.30532E-03 21560   0.640E-01    0.929E-02
DAV:   4    -0.919398605597E+02    0.12529E-03   -0.93923E-04 25700   0.252E-01    0.336E-02
DAV:   5    -0.919398478644E+02    0.12695E-04   -0.23710E-04 21900   0.235E-01    0.156E-02
DAV:   6    -0.919398414709E+02    0.63935E-05   -0.39961E-05 19360   0.709E-02
   4 F= -.91939841E+02 E0= -.91939484E+02  d E =-.928576E+03
 curvature:  -0.49 expect dE=-0.212E+02 dE for cont linesearch -0.724E-01
 ZBRENT: bisectioning
 opt :   1.0041  next Energy=   -97.610806 (dE=-0.934E+03)
 bond charge predicted
       N       E                     dE             d eps       ncg     rms          rms(c)
DAV:   1    -0.923149142095E+02   -0.37507E+00   -0.17737E+03 20140   0.949E+01    0.427E+00
DAV:   2    -0.943583293291E+02   -0.20434E+01   -0.25114E+01 22040   0.296E+01    0.334E+00
DAV:   3    -0.945310232844E+02   -0.17269E+00   -0.58790E+00 20980   0.222E+01    0.199E+00
DAV:   4    -0.945088520710E+02    0.22171E-01   -0.80826E-01 21340   0.700E+00    0.907E-01
DAV:   5    -0.945060370099E+02    0.28151E-02   -0.17193E-01 22320   0.566E+00    0.468E-01
DAV:   6    -0.945042900321E+02    0.17470E-02   -0.37180E-02 21740   0.243E+00    0.190E-01
DAV:   7    -0.945045840500E+02   -0.29402E-03   -0.11439E-02 21900   0.120E+00    0.168E-01
DAV:   8    -0.945044810712E+02    0.10298E-03   -0.36556E-03 21980   0.764E-01    0.479E-02
DAV:   9    -0.945045208237E+02   -0.39752E-04   -0.87987E-04 22100   0.309E-01    0.301E-02
DAV:  10    -0.945045171008E+02    0.37228E-05   -0.24731E-04 21940   0.174E-01    0.159E-02
DAV:  11    -0.945045178121E+02   -0.71125E-06   -0.46544E-05 19880   0.655E-02
   5 F= -.94504518E+02 E0= -.94504263E+02  d E =-.931140E+03
 curvature: -38.45 expect dE=-0.117E+04 dE for cont linesearch -0.108E+01
 ZBRENT: interpolating
 opt :   1.0054  next Energy=   -94.649670 (dE=-0.931E+03)
 bond charge predicted
       N       E                     dE             d eps       ncg     rms          rms(c)
DAV:   1    -0.940851653598E+02    0.41935E+00   -0.87047E+01 19500   0.197E+01    0.136E+00
DAV:   2    -0.941846056988E+02   -0.99440E-01   -0.16707E+00 21280   0.889E+00    0.110E+00
DAV:   3    -0.941714318713E+02    0.13174E-01   -0.15408E-01 21180   0.558E+00    0.562E-01
DAV:   4    -0.941666624113E+02    0.47695E-02   -0.61677E-02 22460   0.171E+00    0.235E-01
DAV:   5    -0.941665129982E+02    0.14941E-03   -0.11710E-02 21900   0.141E+00    0.148E-01
DAV:   6    -0.941663201341E+02    0.19286E-03   -0.26904E-03 21880   0.561E-01    0.568E-02
DAV:   7    -0.941663367944E+02   -0.16660E-04   -0.68139E-04 22980   0.236E-01    0.267E-02
DAV:   8    -0.941663375807E+02   -0.78625E-06   -0.13434E-04 21940   0.147E-01    0.138E-02
DAV:   9    -0.941663361121E+02    0.14685E-05   -0.30816E-05 15640   0.708E-02
   6 F= -.94166336E+02 E0= -.94166080E+02  d E =-.930802E+03
 curvature:  -5.16 expect dE=-0.167E+03 dE for cont linesearch -0.111E+01
 ZBRENT: interpolating
 opt :   1.0045  next Energy=   -94.543031 (dE=-0.931E+03)
 bond charge predicted
       N       E                     dE             d eps       ncg     rms          rms(c)
DAV:   1    -0.944776583870E+02   -0.31132E+00   -0.45179E+01 19420   0.138E+01    0.947E-01
DAV:   2    -0.945359693347E+02   -0.58311E-01   -0.90514E-01 21900   0.602E+00    0.757E-01
DAV:   3    -0.945315107449E+02    0.44586E-02   -0.92352E-02 21700   0.394E+00    0.442E-01
DAV:   4    -0.945282416603E+02    0.32691E-02   -0.35471E-02 22420   0.144E+00    0.184E-01
DAV:   5    -0.945281633464E+02    0.78314E-04   -0.85125E-03 21920   0.117E+00    0.116E-01
DAV:   6    -0.945280423044E+02    0.12104E-03   -0.15117E-03 21860   0.381E-01    0.468E-02
DAV:   7    -0.945280489568E+02   -0.66524E-05   -0.36327E-04 21680   0.195E-01    0.250E-02
DAV:   8    -0.945280444472E+02    0.45096E-05   -0.11271E-04 21220   0.136E-01    0.851E-03
DAV:   9    -0.945280446386E+02   -0.19144E-06   -0.20894E-05 13400   0.535E-02
   7 F= -.94528045E+02 E0= -.94527787E+02  d E =-.931164E+03
 curvature:  -0.18 expect dE=-0.541E+01 dE for cont linesearch -0.580E-03
 ZBRENT: interpolating
 opt :   1.0044  next Energy=   -94.531363 (dE=-0.931E+03)
 bond charge predicted
       N       E                     dE             d eps       ncg     rms          rms(c)
DAV:   1    -0.945312806425E+02   -0.32362E-02   -0.36216E-01 19460   0.125E+00    0.932E-02
DAV:   2    -0.945317374663E+02   -0.45682E-03   -0.78411E-03 21220   0.601E-01    0.747E-02
DAV:   3    -0.945316776410E+02    0.59825E-04   -0.73980E-04 21360   0.382E-01    0.390E-02
DAV:   4    -0.945316528409E+02    0.24800E-04   -0.32315E-04 22320   0.108E-01    0.135E-02
DAV:   5    -0.945316532125E+02   -0.37152E-06   -0.43066E-05 17100   0.832E-02
   8 F= -.94531653E+02 E0= -.94531395E+02  d E =-.931167E+03
 curvature:  -1.02 expect dE=-0.309E+02 dE for cont linesearch -0.201E-04
 trial: gam= 0.00002 g(F)=  0.303E+02 g(S)=  0.000E+00 ort =-0.610E+01 (trialstep = 0.100E+01)
 search vector abs. value=  0.303E+02
 bond charge predicted
       N       E                     dE             d eps       ncg     rms          rms(c)
DAV:   1    -0.109196297581E+03   -0.14665E+02   -0.22705E+03 19460   0.124E+02    0.927E+00
DAV:   2    -0.114224131222E+03   -0.50278E+01   -0.68507E+01 23800   0.972E+01    0.107E+01
DAV:   3    -0.111819469872E+03    0.24047E+01   -0.13027E+01 22740   0.394E+01    0.332E+00
DAV:   4    -0.111842954806E+03   -0.23485E-01   -0.30171E+00 27020   0.142E+01    0.160E+00
DAV:   5    -0.111882150436E+03   -0.39196E-01   -0.10872E+00 21980   0.955E+00    0.109E+00
DAV:   6    -0.111885526101E+03   -0.33757E-02   -0.34681E-01 21660   0.608E+00    0.642E-01
DAV:   7    -0.111885480708E+03    0.45393E-04   -0.47925E-02 21760   0.237E+00    0.460E-01
DAV:   8    -0.111883230811E+03    0.22499E-02   -0.28031E-02 21880   0.248E+00    0.186E-01
DAV:   9    -0.111883418884E+03   -0.18807E-03   -0.52829E-03 28720   0.761E-01    0.181E-01
DAV:  10    -0.111883063966E+03    0.35492E-03   -0.18756E-03 21480   0.488E-01    0.948E-02
DAV:  11    -0.111882879792E+03    0.18417E-03   -0.64891E-04 23300   0.506E-01    0.256E-02
DAV:  12    -0.111882901869E+03   -0.22077E-04   -0.41415E-04 26180   0.178E-01    0.121E-02
DAV:  13    -0.111882906275E+03   -0.44057E-05   -0.50524E-05 19620   0.564E-02
   9 F= -.11188291E+03 E0= -.11188254E+03  d E =-.173513E+02
 trial-energy change:  -17.351253  1 .order  -18.980311  -30.301656   -7.658966
 step:   1.3394(harm=  1.3394)  dis= 0.20931  next Energy=  -114.807300 (dE=-0.203E+02)
 bond charge predicted
       N       E                     dE             d eps       ncg     rms          rms(c)
DAV:   1    -0.113573383964E+03   -0.16905E+01   -0.17992E+02 19380   0.317E+01    0.159E+00
DAV:   2    -0.113707760315E+03   -0.13438E+00   -0.20329E+00 22200   0.153E+01    0.193E+00
DAV:   3    -0.113657529877E+03    0.50230E-01   -0.34074E-01 21800   0.852E+00    0.731E-01
DAV:   4    -0.113653274214E+03    0.42557E-02   -0.82180E-02 23940   0.269E+00    0.375E-01
DAV:   5    -0.113652645947E+03    0.62827E-03   -0.43185E-02 21860   0.254E+00    0.179E-01
DAV:   6    -0.113652530813E+03    0.11513E-03   -0.73020E-03 22120   0.105E+00    0.773E-02
DAV:   7    -0.113652607952E+03   -0.77138E-04   -0.20310E-03 21880   0.480E-01    0.455E-02
DAV:   8    -0.113652608586E+03   -0.63438E-06   -0.49817E-04 21360   0.246E-01    0.162E-02
DAV:   9    -0.113652612255E+03   -0.36687E-05   -0.73429E-05 21020   0.820E-02
  10 F= -.11365261E+03 E0= -.11365230E+03  d E =-.191210E+02
 curvature:  -0.67 expect dE=-0.551E+00 dE for cont linesearch -0.189E+00
 ZBRENT: increasing intervall
 opt :   2.0165  next Energy=  -112.425013 (dE=-0.179E+02)
 bond charge predicted
       N       E                     dE             d eps       ncg     rms          rms(c)
DAV:   1    -0.112040759655E+03    0.16118E+01   -0.83546E+02 19360   0.726E+01    0.306E+00
DAV:   2    -0.112878815965E+03   -0.83806E+00   -0.10473E+01 22020   0.299E+01    0.382E+00
DAV:   3    -0.112763254430E+03    0.11556E+00   -0.22091E+00 21700   0.181E+01    0.144E+00
DAV:   4    -0.112748053393E+03    0.15201E-01   -0.34065E-01 25500   0.456E+00    0.838E-01
DAV:   5    -0.112745029954E+03    0.30234E-02   -0.15582E-01 21680   0.483E+00    0.436E-01
DAV:   6    -0.112743031532E+03    0.19984E-02   -0.32224E-02 21860   0.227E+00    0.153E-01
DAV:   7    -0.112743125185E+03   -0.93653E-04   -0.61650E-03 22500   0.780E-01    0.873E-02
DAV:   8    -0.112743164953E+03   -0.39768E-04   -0.19207E-03 22000   0.480E-01    0.658E-02
DAV:   9    -0.112743138725E+03    0.26228E-04   -0.68536E-04 21960   0.287E-01    0.200E-02
DAV:  10    -0.112743140480E+03   -0.17549E-05   -0.96823E-05 21940   0.107E-01
  11 F= -.11274314E+03 E0= -.11274281E+03  d E =-.182115E+02
 curvature:   4.36 expect dE= 0.177E+02 dE for cont linesearch  0.458E+01
 ZBRENT: bracketing found
 ZBRENT: interpolating
 opt :   1.5704  next Energy=  -113.989743 (dE=-0.195E+02)
 bond charge predicted
       N       E                     dE             d eps       ncg     rms          rms(c)
DAV:   1    -0.113787650788E+03   -0.10445E+01   -0.32423E+02 19380   0.427E+01    0.180E+00
DAV:   2    -0.114026490592E+03   -0.23884E+00   -0.32163E+00 21780   0.142E+01    0.211E+00
DAV:   3    -0.114000988491E+03    0.25502E-01   -0.64106E-01 20640   0.917E+00    0.911E-01
DAV:   4    -0.113989099737E+03    0.11889E-01   -0.10865E-01 28400   0.282E+00    0.472E-01
DAV:   5    -0.113987078674E+03    0.20211E-02   -0.40862E-02 21680   0.264E+00    0.165E-01
DAV:   6    -0.113986874982E+03    0.20369E-03   -0.76768E-03 22220   0.972E-01    0.989E-02
DAV:   7    -0.113986934508E+03   -0.59526E-04   -0.23572E-03 22380   0.405E-01    0.591E-02
DAV:   8    -0.113986935957E+03   -0.14489E-05   -0.71002E-04 21360   0.313E-01    0.349E-02
DAV:   9    -0.113986920599E+03    0.15358E-04   -0.11095E-04 21200   0.129E-01    0.115E-02
DAV:  10    -0.113986920002E+03    0.59701E-06   -0.25368E-05 13640   0.646E-02
  12 F= -.11398692E+03 E0= -.11398659E+03  d E =-.194553E+02
 curvature:  -0.32 expect dE=-0.309E+00 dE for cont linesearch -0.928E-07
 trial: gam= 0.03227 g(F)=  0.964E+00 g(S)=  0.000E+00 ort =-0.296E-02 (trialstep = 0.111E+01)
 search vector abs. value=  0.996E+00
 bond charge predicted
       N       E                     dE             d eps       ncg     rms          rms(c)
DAV:   1    -0.114787933554E+03   -0.80101E+00   -0.46953E+01 19640   0.161E+01    0.696E-01
DAV:   2    -0.114821467519E+03   -0.33534E-01   -0.42287E-01 21200   0.448E+00    0.726E-01
DAV:   3    -0.114818907012E+03    0.25605E-02   -0.55317E-02 21000   0.288E+00    0.387E-01
DAV:   4    -0.114816983686E+03    0.19233E-02   -0.10915E-02 26860   0.937E-01    0.180E-01
DAV:   5    -0.114816655454E+03    0.32823E-03   -0.50262E-03 22000   0.104E+00    0.847E-02
DAV:   6    -0.114816560646E+03    0.94808E-04   -0.77850E-04 21680   0.354E-01    0.311E-02
DAV:   7    -0.114816555980E+03    0.46654E-05   -0.22543E-04 23860   0.147E-01    0.163E-02
DAV:   8    -0.114816558493E+03   -0.25128E-05   -0.79081E-05 20980   0.992E-02
  13 F= -.11481656E+03 E0= -.11481628E+03  d E =-.829638E+00
 trial-energy change:   -0.829638  1 .order   -0.841246   -1.075021   -0.607472
 step:   2.5632(harm=  2.5632)  dis= 0.07464  next Energy=  -115.222800 (dE=-0.124E+01)
 bond charge predicted
       N       E                     dE             d eps       ncg     rms          rms(c)
DAV:   1    -0.115253702697E+03   -0.43715E+00   -0.79466E+01 19740   0.209E+01    0.846E-01
DAV:   2    -0.115304407721E+03   -0.50705E-01   -0.63443E-01 21140   0.505E+00    0.826E-01
DAV:   3    -0.115301745052E+03    0.26627E-02   -0.84664E-02 21120   0.363E+00    0.464E-01
DAV:   4    -0.115298148421E+03    0.35966E-02   -0.13338E-02 25560   0.883E-01    0.187E-01
DAV:   5    -0.115297827780E+03    0.32064E-03   -0.54071E-03 21580   0.111E+00    0.104E-01
DAV:   6    -0.115297635303E+03    0.19248E-03   -0.80163E-04 23540   0.443E-01    0.301E-02
DAV:   7    -0.115297648337E+03   -0.13034E-04   -0.36677E-04 25460   0.144E-01    0.214E-02
DAV:   8    -0.115297649908E+03   -0.15711E-05   -0.13375E-04 21520   0.128E-01    0.117E-02
DAV:   9    -0.115297648634E+03    0.12743E-05   -0.22128E-05 13280   0.622E-02
  14 F= -.11529765E+03 E0= -.11529748E+03  d E =-.131073E+01
 curvature:  -1.32 expect dE=-0.574E+00 dE for cont linesearch -0.256E-01
 ZBRENT: extrapolating
 opt :   3.0577  next Energy=  -115.331942 (dE=-0.135E+01)
 bond charge predicted
       N       E                     dE             d eps       ncg     rms          rms(c)
DAV:   1    -0.115332249213E+03   -0.34599E-01   -0.91722E+00 19800   0.707E+00    0.276E-01
DAV:   2    -0.115337701389E+03   -0.54522E-02   -0.68634E-02 21060   0.151E+00    0.253E-01
DAV:   3    -0.115337518105E+03    0.18328E-03   -0.85675E-03 21040   0.117E+00    0.157E-01
DAV:   4    -0.115337003637E+03    0.51447E-03   -0.12482E-03 28140   0.315E-01    0.423E-02
DAV:   5    -0.115336987024E+03    0.16613E-04   -0.28782E-04 21820   0.234E-01    0.260E-02
DAV:   6    -0.115336981472E+03    0.55524E-05   -0.11171E-04 22140   0.131E-01    0.107E-02
DAV:   7    -0.115336980943E+03    0.52898E-06   -0.29468E-05 15300   0.441E-02
  15 F= -.11533698E+03 E0= -.11533682E+03  d E =-.135006E+01
 curvature:  -1.78 expect dE=-0.102E+01 dE for cont linesearch -0.853E-03
 trial: gam= 0.62241 g(F)=  0.574E+00 g(S)=  0.000E+00 ort = 0.219E-01 (trialstep = 0.150E+01)
 search vector abs. value=  0.987E+00
 bond charge predicted
       N       E                     dE             d eps       ncg     rms          rms(c)
DAV:   1    -0.115948192242E+03   -0.61121E+00   -0.95957E+01 19420   0.231E+01    0.864E-01
DAV:   2    -0.116001022157E+03   -0.52830E-01   -0.72381E-01 21420   0.676E+00    0.963E-01
DAV:   3    -0.115995007399E+03    0.60148E-02   -0.11177E-01 21280   0.420E+00    0.442E-01
DAV:   4    -0.115991518540E+03    0.34889E-02   -0.21941E-02 25540   0.150E+00    0.237E-01
DAV:   5    -0.115991027748E+03    0.49079E-03   -0.11256E-02 21760   0.153E+00    0.895E-02
DAV:   6    -0.115990967867E+03    0.59882E-04   -0.16457E-03 21900   0.448E-01    0.326E-02
DAV:   7    -0.115990980763E+03   -0.12896E-04   -0.41519E-04 21960   0.180E-01    0.261E-02
DAV:   8    -0.115990980654E+03    0.10919E-06   -0.14789E-04 21240   0.142E-01    0.116E-02
DAV:   9    -0.115990979232E+03    0.14217E-05   -0.21705E-05 13680   0.518E-02
  16 F= -.11599098E+03 E0= -.11599069E+03  d E =-.653998E+00
 trial-energy change:   -0.653998  1 .order   -0.662273   -0.883135   -0.441410
 step:   3.5480(harm=  3.0056)  dis= 0.08873  next Energy=  -116.270331 (dE=-0.933E+00)
 bond charge predicted
       N       E                     dE             d eps       ncg     rms          rms(c)
DAV:   1    -0.116164775589E+03   -0.17379E+00   -0.17938E+02 19420   0.317E+01    0.112E+00
DAV:   2    -0.116266087043E+03   -0.10131E+00   -0.13052E+00 21260   0.873E+00    0.125E+00
DAV:   3    -0.116257238239E+03    0.88488E-02   -0.19399E-01 21320   0.542E+00    0.591E-01
DAV:   4    -0.116250723771E+03    0.65145E-02   -0.35109E-02 27440   0.205E+00    0.322E-01
DAV:   5    -0.116249618171E+03    0.11056E-02   -0.17749E-02 21700   0.200E+00    0.108E-01
DAV:   6    -0.116249544616E+03    0.73554E-04   -0.27266E-03 21980   0.541E-01    0.391E-02
DAV:   7    -0.116249577051E+03   -0.32435E-04   -0.73504E-04 21900   0.235E-01    0.324E-02
DAV:   8    -0.116249580203E+03   -0.31518E-05   -0.26446E-04 21820   0.188E-01    0.141E-02
DAV:   9    -0.116249579893E+03    0.30950E-06   -0.38182E-05 20220   0.628E-02
  17 F= -.11624958E+03 E0= -.11624933E+03  d E =-.912599E+00
 curvature:  -2.20 expect dE=-0.125E+00 dE for cont linesearch -0.210E-02
 ZBRENT: interpolating
 opt :   3.3543  next Energy=  -116.252556 (dE=-0.916E+00)
 bond charge predicted
       N       E                     dE             d eps       ncg     rms          rms(c)
DAV:   1    -0.116252134610E+03   -0.25544E-02   -0.15812E+00 19460   0.295E+00    0.100E-01
DAV:   2    -0.116252918628E+03   -0.78402E-03   -0.10243E-02 21580   0.722E-01    0.115E-01
DAV:   3    -0.116252863889E+03    0.54739E-04   -0.15772E-03 20920   0.471E-01    0.563E-02
DAV:   4    -0.116252790123E+03    0.73765E-04   -0.28932E-04 25720   0.112E-01    0.214E-02
DAV:   5    -0.116252788295E+03    0.18279E-05   -0.96806E-05 21640   0.147E-01
  18 F= -.11625279E+03 E0= -.11625253E+03  d E =-.915807E+00
 curvature:  -3.11 expect dE=-0.156E+00 dE for cont linesearch -0.133E-04
 trial: gam= 0.05566 g(F)=  0.502E-01 g(S)=  0.000E+00 ort =-0.206E-02 (trialstep = 0.187E+01)
 search vector abs. value=  0.531E-01
 bond charge predicted
       N       E                     dE             d eps       ncg     rms          rms(c)
DAV:   1    -0.116328580802E+03   -0.75791E-01   -0.85711E+00 19420   0.686E+00    0.225E-01
DAV:   2    -0.116332643544E+03   -0.40627E-02   -0.52057E-02 21180   0.130E+00    0.208E-01
DAV:   3    -0.116332453156E+03    0.19039E-03   -0.55712E-03 21020   0.926E-01    0.128E-01
DAV:   4    -0.116332045655E+03    0.40750E-03   -0.92943E-04 24300   0.352E-01    0.406E-02
DAV:   5    -0.116332037063E+03    0.85922E-05   -0.38559E-04 21920   0.328E-01    0.269E-02
DAV:   6    -0.116332028991E+03    0.80718E-05   -0.10120E-04 21300   0.135E-01    0.768E-03
DAV:   7    -0.116332029726E+03   -0.73466E-06   -0.26356E-05 15600   0.374E-02
  19 F= -.11633203E+03 E0= -.11633178E+03  d E =-.792414E-01
 trial-energy change:   -0.079241  1 .order   -0.079265   -0.093903   -0.064626
 step:   6.0093(harm=  6.0093)  dis= 0.03110  next Energy=  -116.403383 (dE=-0.151E+00)
 bond charge predicted
       N       E                     dE             d eps       ncg     rms          rms(c)
DAV:   1    -0.116387116835E+03   -0.55088E-01   -0.41881E+01 19400   0.152E+01    0.497E-01
DAV:   2    -0.116406890353E+03   -0.19774E-01   -0.25212E-01 21160   0.279E+00    0.449E-01
DAV:   3    -0.116406044021E+03    0.84633E-03   -0.26029E-02 21080   0.203E+00    0.283E-01
DAV:   4    -0.116404040648E+03    0.20034E-02   -0.42730E-03 25040   0.762E-01    0.754E-02
DAV:   5    -0.116404041820E+03   -0.11718E-05   -0.15338E-03 21940   0.644E-01    0.579E-02
DAV:   6    -0.116404008373E+03    0.33447E-04   -0.51753E-04 21900   0.300E-01    0.172E-02
DAV:   7    -0.116404011775E+03   -0.34018E-05   -0.13204E-04 21300   0.830E-02    0.129E-02
DAV:   8    -0.116404010281E+03    0.14933E-05   -0.34265E-05 17020   0.716E-02
  20 F= -.11640401E+03 E0= -.11640380E+03  d E =-.151222E+00
 curvature:  -3.18 expect dE=-0.732E-01 dE for cont linesearch -0.756E-05
 trial: gam= 0.48754 g(F)=  0.230E-01 g(S)=  0.000E+00 ort = 0.355E-03 (trialstep = 0.270E+01)
 search vector abs. value=  0.360E-01
 bond charge predicted
       N       E                     dE             d eps       ncg     rms          rms(c)
DAV:   1    -0.116451549246E+03   -0.47537E-01   -0.10868E+01 19500   0.769E+00    0.264E-01
DAV:   2    -0.116455475516E+03   -0.39263E-02   -0.53872E-02 21100   0.136E+00    0.227E-01
DAV:   3    -0.116455439108E+03    0.36408E-04   -0.90214E-03 21020   0.119E+00    0.157E-01
DAV:   4    -0.116454876871E+03    0.56224E-03   -0.14628E-03 29480   0.433E-01    0.442E-02
DAV:   5    -0.116454856285E+03    0.20586E-04   -0.32104E-04 21660   0.245E-01    0.258E-02
DAV:   6    -0.116454851984E+03    0.43011E-05   -0.13262E-04 21280   0.118E-01    0.102E-02
DAV:   7    -0.116454850641E+03    0.13431E-05   -0.23833E-05 14620   0.403E-02
  21 F= -.11645485E+03 E0= -.11645464E+03  d E =-.508404E-01
 trial-energy change:   -0.050840  1 .order   -0.050946   -0.062617   -0.039275
 step:   7.6218(harm=  7.2450)  dis= 0.03533  next Energy=  -116.489995 (dE=-0.860E-01)
 bond charge predicted
       N       E                     dE             d eps       ncg     rms          rms(c)
DAV:   1    -0.116478436384E+03   -0.23584E-01   -0.36155E+01 19480   0.141E+01    0.479E-01
DAV:   2    -0.116491678569E+03   -0.13242E-01   -0.18055E-01 21120   0.248E+00    0.412E-01
DAV:   3    -0.116491457549E+03    0.22102E-03   -0.28943E-02 20960   0.215E+00    0.282E-01
DAV:   4    -0.116489657110E+03    0.18004E-02   -0.48484E-03 29320   0.757E-01    0.793E-02
DAV:   5    -0.116489592845E+03    0.64265E-04   -0.10597E-03 21740   0.450E-01    0.476E-02
DAV:   6    -0.116489577657E+03    0.15187E-04   -0.44073E-04 21780   0.221E-01    0.187E-02
DAV:   7    -0.116489575311E+03    0.23466E-05   -0.93352E-05 21080   0.756E-02
  22 F= -.11648958E+03 E0= -.11648939E+03  d E =-.855650E-01
 curvature:  -5.58 expect dE=-0.442E-01 dE for cont linesearch -0.187E-04
 trial: gam= 0.38540 g(F)=  0.791E-02 g(S)=  0.000E+00 ort =-0.347E-03 (trialstep = 0.368E+01)
 search vector abs. value=  0.130E-01
 bond charge predicted
       N       E                     dE             d eps       ncg     rms          rms(c)
DAV:   1    -0.116512871513E+03   -0.23294E-01   -0.74725E+00 19360   0.640E+00    0.200E-01
DAV:   2    -0.116515144045E+03   -0.22725E-02   -0.33156E-02 21120   0.101E+00    0.176E-01
DAV:   3    -0.116514961529E+03    0.18252E-03   -0.42522E-03 21440   0.868E-01    0.117E-01
DAV:   4    -0.116514608781E+03    0.35275E-03   -0.11130E-03 28980   0.252E-01    0.506E-02
DAV:   5    -0.116514557410E+03    0.51371E-04   -0.15911E-04 22220   0.189E-01    0.238E-02
DAV:   6    -0.116514552265E+03    0.51449E-05   -0.88477E-05 20980   0.934E-02
  23 F= -.11651455E+03 E0= -.11651437E+03  d E =-.249770E-01
 trial-energy change:   -0.024977  1 .order   -0.024853   -0.028658   -0.021049
 step:  11.4993(harm= 13.8782)  dis= 0.03818  next Energy=  -116.538051 (dE=-0.485E-01)
 bond charge predicted
       N       E                     dE             d eps       ncg     rms          rms(c)
DAV:   1    -0.116534782047E+03   -0.20225E-01   -0.33676E+01 19400   0.136E+01    0.423E-01
DAV:   2    -0.116545344213E+03   -0.10562E-01   -0.15183E-01 21100   0.223E+00    0.383E-01
DAV:   3    -0.116544559222E+03    0.78499E-03   -0.20418E-02 21420   0.186E+00    0.247E-01
DAV:   4    -0.116542987798E+03    0.15714E-02   -0.50931E-03 28960   0.490E-01    0.105E-01
DAV:   5    -0.116542784539E+03    0.20326E-03   -0.79626E-04 22020   0.419E-01    0.544E-02
DAV:   6    -0.116542745934E+03    0.38605E-04   -0.33816E-04 27040   0.204E-01    0.239E-02
DAV:   7    -0.116542738006E+03    0.79279E-05   -0.10197E-04 22140   0.747E-02    0.103E-02
DAV:   8    -0.116542738610E+03   -0.60390E-06   -0.26764E-05 13960   0.595E-02
  24 F= -.11654274E+03 E0= -.11654256E+03  d E =-.531633E-01
 curvature: -10.96 expect dE=-0.274E-01 dE for cont linesearch -0.179E-02
 ZBRENT: extrapolating
 opt :  14.1691  next Energy=  -116.544680 (dE=-0.551E-01)
 bond charge predicted
       N       E                     dE             d eps       ncg     rms          rms(c)
DAV:   1    -0.116543752707E+03   -0.10147E-02   -0.39230E+00 19360   0.464E+00    0.143E-01
DAV:   2    -0.116544971633E+03   -0.12189E-02   -0.17455E-02 21100   0.744E-01    0.128E-01
DAV:   3    -0.116544884118E+03    0.87515E-04   -0.22628E-03 21360   0.619E-01    0.838E-02
DAV:   4    -0.116544702202E+03    0.18192E-03   -0.57378E-04 28980   0.173E-01    0.353E-02
DAV:   5    -0.116544677498E+03    0.24704E-04   -0.85326E-05 22120   0.142E-01    0.174E-02
DAV:   6    -0.116544674050E+03    0.34481E-05   -0.41792E-05 18560   0.692E-02
  25 F= -.11654467E+03 E0= -.11654449E+03  d E =-.550987E-01
 curvature: -11.92 expect dE=-0.400E-01 dE for cont linesearch -0.162E-05
 trial: gam= 0.41997 g(F)=  0.336E-02 g(S)=  0.000E+00 ort =-0.420E-04 (trialstep = 0.578E+01)
 search vector abs. value=  0.561E-02
 bond charge predicted
       N       E                     dE             d eps       ncg     rms          rms(c)
DAV:   1    -0.116555654763E+03   -0.10977E-01   -0.84491E+00 19380   0.677E+00    0.207E-01
DAV:   2    -0.116558062807E+03   -0.24080E-02   -0.34781E-02 21140   0.988E-01    0.170E-01
DAV:   3    -0.116557905946E+03    0.15686E-03   -0.44163E-03 21620   0.912E-01    0.130E-01
DAV:   4    -0.116557514696E+03    0.39125E-03   -0.11421E-03 30820   0.321E-01    0.525E-02
DAV:   5    -0.116557459847E+03    0.54849E-04   -0.20350E-04 27920   0.175E-01    0.208E-02
DAV:   6    -0.116557455924E+03    0.39234E-05   -0.75054E-05 20800   0.843E-02
  26 F= -.11655746E+03 E0= -.11655726E+03  d E =-.127819E-01
 trial-energy change:   -0.012782  1 .order   -0.012678   -0.019316   -0.006040
 step:   8.2470(harm=  8.4122)  dis= 0.01387  next Energy=  -116.558752 (dE=-0.141E-01)
 bond charge predicted
       N       E                     dE             d eps       ncg     rms          rms(c)
DAV:   1    -0.116558541281E+03   -0.10814E-02   -0.15352E+00 19380   0.288E+00    0.884E-02
DAV:   2    -0.116558985929E+03   -0.44465E-03   -0.63454E-03 21120   0.409E-01    0.704E-02
DAV:   3    -0.116558957387E+03    0.28542E-04   -0.75733E-04 21620   0.386E-01    0.564E-02
DAV:   4    -0.116558886172E+03    0.71215E-04   -0.20334E-04 29880   0.156E-01    0.222E-02
DAV:   5    -0.116558875968E+03    0.10204E-04   -0.31804E-05 15780   0.758E-02    0.933E-03
DAV:   6    -0.116558875253E+03    0.71563E-06   -0.17045E-05 11540   0.379E-02
  27 F= -.11655888E+03 E0= -.11655868E+03  d E =-.142012E-01
 curvature:  -7.04 expect dE=-0.109E-01 dE for cont linesearch -0.530E-05
 trial: gam= 0.44030 g(F)=  0.155E-02 g(S)=  0.000E+00 ort = 0.650E-04 (trialstep = 0.627E+01)
 search vector abs. value=  0.269E-02
 bond charge predicted
       N       E                     dE             d eps       ncg     rms          rms(c)
DAV:   1    -0.116562209182E+03   -0.33332E-02   -0.49083E+00 19400   0.515E+00    0.158E-01
DAV:   2    -0.116563873948E+03   -0.16648E-02   -0.22274E-02 21120   0.804E-01    0.131E-01
DAV:   3    -0.116563826086E+03    0.47863E-04   -0.29150E-03 21440   0.704E-01    0.983E-02
DAV:   4    -0.116563602460E+03    0.22363E-03   -0.57808E-04 29540   0.246E-01    0.314E-02
DAV:   5    -0.116563586352E+03    0.16108E-04   -0.10012E-04 21980   0.138E-01    0.163E-02
DAV:   6    -0.116563583844E+03    0.25080E-05   -0.44421E-05 19840   0.686E-02
  28 F= -.11656358E+03 E0= -.11656338E+03  d E =-.470859E-02
 trial-energy change:   -0.004709  1 .order   -0.004618   -0.009896    0.000659
 step:   5.9010(harm=  5.8830)  dis= 0.00647  next Energy=  -116.563603 (dE=-0.473E-02)
 bond charge predicted
       N       E                     dE             d eps       ncg     rms          rms(c)
DAV:   1    -0.116563594306E+03   -0.79543E-05   -0.17429E-02 19460   0.309E-01    0.976E-03
DAV:   2    -0.116563599048E+03   -0.47421E-05   -0.73433E-05 21120   0.587E-02
  29 F= -.11656360E+03 E0= -.11656340E+03  d E =-.472380E-02
 curvature:  -5.01 expect dE=-0.276E-02 dE for cont linesearch -0.426E-06
 trial: gam= 0.38575 g(F)=  0.551E-03 g(S)=  0.000E+00 ort = 0.151E-04 (trialstep = 0.620E+01)
 search vector abs. value=  0.964E-03
 bond charge predicted
       N       E                     dE             d eps       ncg     rms          rms(c)
DAV:   1    -0.116564919475E+03   -0.13252E-02   -0.17254E+00 19460   0.306E+00    0.898E-02
DAV:   2    -0.116565522472E+03   -0.60300E-03   -0.80218E-03 21200   0.507E-01    0.831E-02
DAV:   3    -0.116565490511E+03    0.31961E-04   -0.92918E-04 21140   0.385E-01    0.510E-02
DAV:   4    -0.116565417561E+03    0.72950E-04   -0.17936E-04 28800   0.111E-01    0.177E-02
DAV:   5    -0.116565413904E+03    0.36569E-05   -0.39834E-05 20500   0.991E-02
  30 F= -.11656541E+03 E0= -.11656522E+03  d E =-.181486E-02
 trial-energy change:   -0.001815  1 .order   -0.001773   -0.003454   -0.000092
 step:   6.3582(harm=  6.3702)  dis= 0.00368  next Energy=  -116.565415 (dE=-0.182E-02)
 bond charge predicted
       N       E                     dE             d eps       ncg     rms          rms(c)
DAV:   1    -0.116565414852E+03    0.27092E-05   -0.11457E-03 20360   0.900E-02    0.471E-03
DAV:   2    -0.116565415466E+03   -0.61396E-06   -0.97710E-06 11300   0.232E-02
  31 F= -.11656542E+03 E0= -.11656522E+03  d E =-.181642E-02
 curvature:  -5.48 expect dE=-0.638E-03 dE for cont linesearch -0.740E-06
 trial: gam= 0.18466 g(F)=  0.116E-03 g(S)=  0.000E+00 ort = 0.114E-04 (trialstep = 0.623E+01)
 search vector abs. value=  0.153E-03
 bond charge predicted
       N       E                     dE             d eps       ncg     rms          rms(c)
DAV:   1    -0.116565894740E+03   -0.47989E-03   -0.26917E-01 19480   0.121E+00    0.369E-02
DAV:   2    -0.116565981960E+03   -0.87220E-04   -0.12026E-03 21240   0.190E-01    0.320E-02
DAV:   3    -0.116565976631E+03    0.53299E-05   -0.14111E-04 21520   0.158E-01    0.217E-02
DAV:   4    -0.116565962804E+03    0.13826E-04   -0.18821E-05 14060   0.509E-02    0.655E-03
DAV:   5    -0.116565962985E+03   -0.18007E-06   -0.11188E-05 11080   0.360E-02
  32 F= -.11656596E+03 E0= -.11656577E+03  d E =-.547519E-03
 trial-energy change:   -0.000548  1 .order   -0.000545   -0.000739   -0.000351
 step:  11.8715(harm= 11.8715)  dis= 0.00346  next Energy=  -116.566119 (dE=-0.703E-03)
 bond charge predicted
       N       E                     dE             d eps       ncg     rms          rms(c)
DAV:   1    -0.116566087703E+03   -0.12490E-03   -0.22050E-01 19520   0.109E+00    0.323E-02
DAV:   2    -0.116566161035E+03   -0.73333E-04   -0.97588E-04 21260   0.182E-01    0.296E-02
DAV:   3    -0.116566157816E+03    0.32188E-05   -0.12573E-04 21200   0.141E-01    0.185E-02
DAV:   4    -0.116566147721E+03    0.10096E-04   -0.16772E-05 13140   0.398E-02    0.540E-03
DAV:   5    -0.116566148097E+03   -0.37660E-06   -0.10554E-05 11040   0.378E-02
  33 F= -.11656615E+03 E0= -.11656595E+03  d E =-.732632E-03
 curvature:  -7.69 expect dE=-0.809E-03 dE for cont linesearch -0.264E-06
 trial: gam= 0.90499 g(F)=  0.105E-03 g(S)=  0.000E+00 ort = 0.230E-05 (trialstep = 0.480E+01)
 search vector abs. value=  0.235E-03
 bond charge predicted
       N       E                     dE             d eps       ncg     rms          rms(c)
DAV:   1    -0.116566455188E+03   -0.30747E-03   -0.22266E-01 19440   0.110E+00    0.352E-02
DAV:   2    -0.116566534441E+03   -0.79254E-04   -0.10621E-03 21120   0.159E-01    0.268E-02
DAV:   3    -0.116566529836E+03    0.46053E-05   -0.10155E-04 21660   0.147E-01    0.220E-02
DAV:   4    -0.116566517599E+03    0.12238E-04   -0.17514E-05 13200   0.713E-02    0.579E-03
DAV:   5    -0.116566517524E+03    0.74884E-07   -0.75755E-06 11120   0.267E-02
  34 F= -.11656652E+03 E0= -.11656632E+03  d E =-.369427E-03
 trial-energy change:   -0.000369  1 .order   -0.000347   -0.000516   -0.000179
 step:   7.3656(harm=  7.3656)  dis= 0.00278  next Energy=  -116.566543 (dE=-0.395E-03)
 bond charge predicted
       N       E                     dE             d eps       ncg     rms          rms(c)
DAV:   1    -0.116566556083E+03   -0.38484E-04   -0.63277E-02 19500   0.587E-01    0.185E-02
DAV:   2    -0.116566578973E+03   -0.22890E-04   -0.30066E-04 21120   0.897E-02    0.146E-02
DAV:   3    -0.116566578199E+03    0.77369E-06   -0.33456E-05 18740   0.778E-02
  35 F= -.11656658E+03 E0= -.11656638E+03  d E =-.430102E-03
 curvature:  -8.07 expect dE=-0.352E-03 dE for cont linesearch -0.500E-06
 trial: gam= 0.42214 g(F)=  0.436E-04 g(S)=  0.000E+00 ort = 0.382E-05 (trialstep = 0.532E+01)
 search vector abs. value=  0.887E-04
 bond charge predicted
       N       E                     dE             d eps       ncg     rms          rms(c)
DAV:   1    -0.116566765603E+03   -0.18663E-03   -0.90406E-02 19380   0.703E-01    0.222E-02
DAV:   2    -0.116566792057E+03   -0.26454E-04   -0.38700E-04 21240   0.100E-01    0.174E-02
DAV:   3    -0.116566790815E+03    0.12419E-05   -0.53007E-05 20840   0.982E-02
  36 F= -.11656679E+03 E0= -.11656659E+03  d E =-.212616E-03
 ZBRENT: can't locate minimum, use default step
 trial-energy change:   -0.000213  1 .order   -0.000211   -0.000240   -0.000181
 step:  21.2685(harm= 21.6874)  dis= 0.00608  next Energy=  -116.567068 (dE=-0.490E-03)
 bond charge predicted
       N       E                     dE             d eps       ncg     rms          rms(c)
DAV:   1    -0.116566889497E+03   -0.97440E-04   -0.81325E-01 19360   0.211E+00    0.673E-02
DAV:   2    -0.116567121211E+03   -0.23171E-03   -0.34376E-03 21220   0.301E-01    0.533E-02
DAV:   3    -0.116567110155E+03    0.11056E-04   -0.48613E-04 21640   0.299E-01    0.427E-02
DAV:   4    -0.116567062725E+03    0.47429E-04   -0.11502E-04 27280   0.132E-01    0.103E-02
DAV:   5    -0.116567061478E+03    0.12476E-05   -0.16796E-05 12100   0.506E-02
  37 F= -.11656706E+03 E0= -.11656686E+03  d E =-.483279E-03
 curvature: -21.27 expect dE=-0.145E-02 dE for cont linesearch -0.341E-05
 trial: gam= 1.63778 g(F)=  0.680E-04 g(S)=  0.000E+00 ort =-0.377E-05 (trialstep = 0.257E+01)
 search vector abs. value=  0.294E-03
 bond charge predicted
       N       E                     dE             d eps       ncg     rms          rms(c)
DAV:   1    -0.116567204041E+03   -0.14132E-03   -0.62362E-02 19360   0.582E-01    0.192E-02
DAV:   2    -0.116567223579E+03   -0.19538E-04   -0.28342E-04 21240   0.828E-02    0.149E-02
DAV:   3    -0.116567222181E+03    0.13979E-05   -0.32178E-05 18480   0.831E-02
  38 F= -.11656722E+03 E0= -.11656702E+03  d E =-.160703E-03
 ZBRENT: can't locate minimum, use default step
 trial-energy change:   -0.000161  1 .order   -0.000149   -0.000159   -0.000139
 step:  10.2828(harm= 20.5301)  dis= 0.00604  next Energy=  -116.567696 (dE=-0.634E-03)
 bond charge predicted
       N       E                     dE             d eps       ncg     rms          rms(c)
DAV:   1    -0.116567374260E+03   -0.15068E-03   -0.56055E-01 19360   0.174E+00    0.571E-02
DAV:   2    -0.116567537580E+03   -0.16332E-03   -0.24626E-03 21240   0.242E-01    0.438E-02
DAV:   3    -0.116567526820E+03    0.10759E-04   -0.31144E-04 21760   0.253E-01    0.365E-02
DAV:   4    -0.116567492931E+03    0.33889E-04   -0.82527E-05 26140   0.121E-01    0.827E-03
DAV:   5    -0.116567492090E+03    0.84133E-06   -0.11801E-05 11600   0.342E-02
  39 F= -.11656749E+03 E0= -.11656730E+03  d E =-.430612E-03
 curvature: -32.89 expect dE=-0.414E-02 dE for cont linesearch -0.109E-04
 trial: gam= 1.60923 g(F)=  0.126E-03 g(S)=  0.000E+00 ort = 0.988E-05 (trialstep = 0.132E+01)
 search vector abs. value=  0.918E-03
 bond charge predicted
       N       E                     dE             d eps       ncg     rms          rms(c)
DAV:   1    -0.116567676334E+03   -0.18340E-03   -0.49015E-02 19400   0.512E-01    0.175E-02
DAV:   2    -0.116567692366E+03   -0.16032E-04   -0.23500E-04 21220   0.736E-02    0.135E-02
DAV:   3    -0.116567691205E+03    0.11611E-05   -0.26497E-05 16060   0.746E-02
  40 F= -.11656769E+03 E0= -.11656749E+03  d E =-.199115E-03
 ZBRENT: can't locate minimum, use default step
 trial-energy change:   -0.000199  1 .order   -0.000190   -0.000187   -0.000193
 step:   5.2608(harm=  5.2608)  dis= 0.00566  next Energy=  -116.568290 (dE=-0.798E-03)
 bond charge predicted
       N       E                     dE             d eps       ncg     rms          rms(c)
DAV:   1    -0.116568149986E+03   -0.45762E-03   -0.44061E-01 19360   0.153E+00    0.519E-02
DAV:   2    -0.116568286881E+03   -0.13689E-03   -0.20636E-03 21240   0.239E-01    0.432E-02
DAV:   3    -0.116568279674E+03    0.72066E-05   -0.31377E-04 21540   0.233E-01    0.313E-02
DAV:   4    -0.116568253234E+03    0.26440E-04   -0.74990E-05 26100   0.864E-02    0.853E-03
DAV:   5    -0.116568252076E+03    0.11578E-05   -0.10159E-05 11560   0.413E-02
  41 F= -.11656825E+03 E0= -.11656806E+03  d E =-.759987E-03
 curvature: -25.90 expect dE=-0.253E-02 dE for cont linesearch -0.476E-03
 ZBRENT: increasing intervall
 opt :  13.1521  next Energy=  -116.569143 (dE=-0.165E-02)
 bond charge predicted
       N       E                     dE             d eps       ncg     rms          rms(c)
DAV:   1    -0.116568859753E+03   -0.60652E-03   -0.17628E+00 19360   0.307E+00    0.106E-01
DAV:   2    -0.116569416269E+03   -0.55652E-03   -0.84518E-03 21220   0.473E-01    0.863E-02
DAV:   3    -0.116569375157E+03    0.41112E-04   -0.11449E-03 21660   0.465E-01    0.638E-02
DAV:   4    -0.116569269575E+03    0.10558E-03   -0.30730E-04 29120   0.178E-01    0.194E-02
DAV:   5    -0.116569262921E+03    0.66541E-05   -0.41278E-05 19820   0.871E-02
  42 F= -.11656926E+03 E0= -.11656907E+03  d E =-.177083E-02
 curvature: -48.51 expect dE=-0.953E-02 dE for cont linesearch -0.547E-03
 ZBRENT: increasing intervall
 opt :  28.9346  next Energy=  -116.570426 (dE=-0.293E-02)
 bond charge predicted
       N       E                     dE             d eps       ncg     rms          rms(c)
DAV:   1    -0.116569112183E+03    0.15739E-03   -0.70610E+00 19360   0.614E+00    0.212E-01
DAV:   2    -0.116571363683E+03   -0.22515E-02   -0.34078E-02 21200   0.983E-01    0.177E-01
DAV:   3    -0.116571186208E+03    0.17748E-03   -0.47314E-03 21620   0.928E-01    0.125E-01
DAV:   4    -0.116570779049E+03    0.40716E-03   -0.12363E-03 29000   0.322E-01    0.394E-02
DAV:   5    -0.116570752574E+03    0.26475E-04   -0.16889E-04 21800   0.191E-01    0.199E-02
DAV:   6    -0.116570751494E+03    0.10795E-05   -0.93741E-05 21820   0.937E-02
  43 F= -.11657075E+03 E0= -.11657057E+03  d E =-.325940E-02
 curvature: ****** expect dE=-0.968E-01 dE for cont linesearch -0.345E-03
 ZBRENT: increasing intervall
 opt :  60.4996  next Energy=  -116.571039 (dE=-0.355E-02)
 bond charge predicted
       N       E                     dE             d eps       ncg     rms          rms(c)
DAV:   1    -0.116563965500E+03    0.67871E-02   -0.28400E+01 19360   0.123E+01    0.426E-01
DAV:   2    -0.116573253985E+03   -0.92885E-02   -0.13974E-01 21220   0.214E+00    0.372E-01
DAV:   3    -0.116572405048E+03    0.84894E-03   -0.20446E-02 21540   0.189E+00    0.242E-01
DAV:   4    -0.116570867675E+03    0.15374E-02   -0.51419E-03 28860   0.572E-01    0.826E-02
DAV:   5    -0.116570763345E+03    0.10433E-03   -0.78283E-04 21840   0.460E-01    0.471E-02
DAV:   6    -0.116570739479E+03    0.23866E-04   -0.36025E-04 24340   0.209E-01    0.144E-02
DAV:   7    -0.116570743514E+03   -0.40346E-05   -0.91318E-05 21040   0.550E-02
  44 F= -.11657074E+03 E0= -.11657057E+03  d E =-.325142E-02
 curvature: -85.97 expect dE=-0.411E+00 dE for cont linesearch -0.664E-03
 ZBRENT: bracketing found
 ZBRENT: interpolating
 opt :  41.4652  next Energy=  -116.571099 (dE=-0.361E-02)
 bond charge predicted
       N       E                     dE             d eps       ncg     rms          rms(c)
DAV:   1    -0.116569041146E+03    0.16983E-02   -0.10273E+01 19360   0.741E+00    0.253E-01
DAV:   2    -0.116572158175E+03   -0.31170E-02   -0.48048E-02 21200   0.117E+00    0.207E-01
DAV:   3    -0.116571921783E+03    0.23639E-03   -0.66949E-03 21700   0.114E+00    0.154E-01
DAV:   4    -0.116571308142E+03    0.61364E-03   -0.18101E-03 28960   0.428E-01    0.378E-02
DAV:   5    -0.116571286798E+03    0.21344E-04   -0.24628E-04 22620   0.215E-01    0.215E-02
DAV:   6    -0.116571287574E+03   -0.77649E-06   -0.13113E-04 21140   0.113E-01    0.879E-03
DAV:   7    -0.116571288065E+03   -0.49069E-06   -0.20489E-05 12520   0.326E-02
  45 F= -.11657129E+03 E0= -.11657111E+03  d E =-.379598E-02
 curvature: -44.96 expect dE=-0.932E-01 dE for cont linesearch -0.173E-04
 trial: gam=17.68816 g(F)=  0.207E-02 g(S)=  0.000E+00 ort = 0.188E-04 (trialstep = 0.296E-01)
 search vector abs. value=  0.290E+00
 bond charge predicted
       N       E                     dE             d eps       ncg     rms          rms(c)
DAV:   1    -0.116571356649E+03   -0.69075E-04   -0.77851E-03 19400   0.207E-01    0.800E-03
DAV:   2    -0.116571358334E+03   -0.16852E-05   -0.34211E-05 18620   0.523E-02
  46 F= -.11657136E+03 E0= -.11657118E+03  d E =-.702691E-04
 ZBRENT: can't locate minimum, use default step
 trial-energy change:   -0.000070  1 .order   -0.000070   -0.000071   -0.000069
 step:   0.1183(harm=  0.9415)  dis= 0.00227  next Energy=  -116.572421 (dE=-0.113E-02)
 bond charge predicted
       N       E                     dE             d eps       ncg     rms          rms(c)
DAV:   1    -0.116571558665E+03   -0.20202E-03   -0.70065E-02 19360   0.613E-01    0.246E-02
DAV:   2    -0.116571576222E+03   -0.17557E-04   -0.33886E-04 21220   0.107E-01    0.199E-02
DAV:   3    -0.116571573861E+03    0.23607E-05   -0.62481E-05 20880   0.110E-01
  47 F= -.11657157E+03 E0= -.11657140E+03  d E =-.285797E-03
 curvature: -10.50 expect dE=-0.231E-01 dE for cont linesearch -0.213E-03
 ZBRENT: increasing intervall
 opt :   0.2959  next Energy=  -116.572021 (dE=-0.733E-03)
 bond charge predicted
       N       E                     dE             d eps       ncg     rms          rms(c)
DAV:   1    -0.116571925379E+03   -0.34916E-03   -0.28001E-01 19360   0.122E+00    0.408E-02
DAV:   2    -0.116572009138E+03   -0.83759E-04   -0.12630E-03 21280   0.194E-01    0.344E-02
DAV:   3    -0.116572006197E+03    0.29410E-05   -0.21473E-04 21560   0.188E-01    0.245E-02
DAV:   4    -0.116571988929E+03    0.17268E-04   -0.42498E-05 20080   0.670E-02    0.479E-03
DAV:   5    -0.116571989010E+03   -0.80698E-07   -0.79528E-06 11340   0.292E-02
  48 F= -.11657199E+03 E0= -.11657181E+03  d E =-.700945E-03
 curvature: -22.05 expect dE=-0.527E-01 dE for cont linesearch -0.392E-03
 ZBRENT: increasing intervall
 opt :   0.6509  next Energy=  -116.572740 (dE=-0.145E-02)
 bond charge predicted
       N       E                     dE             d eps       ncg     rms          rms(c)
DAV:   1    -0.116572602165E+03   -0.61324E-03   -0.11199E+00 19360   0.244E+00    0.831E-02
DAV:   2    -0.116572935357E+03   -0.33319E-03   -0.51431E-03 21200   0.365E-01    0.668E-02
DAV:   3    -0.116572911105E+03    0.24252E-04   -0.70646E-04 21700   0.371E-01    0.512E-02
DAV:   4    -0.116572842629E+03    0.68476E-04   -0.19343E-04 29160   0.150E-01    0.137E-02
DAV:   5    -0.116572839112E+03    0.35164E-05   -0.21249E-05 13560   0.619E-02
  49 F= -.11657284E+03 E0= -.11657266E+03  d E =-.155105E-02
 curvature: -42.26 expect dE=-0.119E+00 dE for cont linesearch -0.680E-03
 ZBRENT: increasing intervall
 opt :   1.3610  next Energy=  -116.574295 (dE=-0.301E-02)
 bond charge predicted
       N       E                     dE             d eps       ncg     rms          rms(c)
DAV:   1    -0.116573579505E+03   -0.73688E-03   -0.44841E+00 19360   0.488E+00    0.167E-01
DAV:   2    -0.116574917974E+03   -0.13385E-02   -0.20698E-02 21200   0.740E-01    0.135E-01
DAV:   3    -0.116574814329E+03    0.10365E-03   -0.28595E-03 21660   0.743E-01    0.102E-01
DAV:   4    -0.116574543773E+03    0.27056E-03   -0.77131E-04 29260   0.286E-01    0.285E-02
DAV:   5    -0.116574530374E+03    0.13398E-04   -0.10626E-04 22220   0.131E-01    0.124E-02
DAV:   6    -0.116574531717E+03   -0.13430E-05   -0.52629E-05 19980   0.651E-02
  50 F= -.11657453E+03 E0= -.11657436E+03  d E =-.324365E-02
 curvature: -90.49 expect dE=-0.347E+00 dE for cont linesearch -0.143E-02
 ZBRENT: increasing intervall
 opt :   2.7812  next Energy=  -116.577541 (dE=-0.625E-02)
 bond charge predicted
       N       E                     dE             d eps       ncg     rms          rms(c)
DAV:   1    -0.116573434439E+03    0.10959E-02   -0.17997E+01 19360   0.980E+00    0.336E-01
DAV:   2    -0.116578890244E+03   -0.54558E-02   -0.84159E-02 21180   0.157E+00    0.282E-01
DAV:   3    -0.116578426136E+03    0.46411E-03   -0.12249E-02 21620   0.150E+00    0.198E-01
DAV:   4    -0.116577380814E+03    0.10453E-02   -0.31150E-03 28920   0.494E-01    0.594E-02
DAV:   5    -0.116577324865E+03    0.55949E-04   -0.42756E-04 21900   0.301E-01    0.311E-02
DAV:   6    -0.116577322045E+03    0.28202E-05   -0.22651E-04 23080   0.153E-01    0.120E-02
DAV:   7    -0.116577323192E+03   -0.11472E-05   -0.45958E-05 20200   0.457E-02
  51 F= -.11657732E+03 E0= -.11657714E+03  d E =-.603513E-02
 curvature: ****** expect dE=-0.124E+01 dE for cont linesearch -0.127E-02
 ZBRENT: increasing intervall
 opt :   5.6215  next Energy=  -116.579150 (dE=-0.786E-02)
 bond charge predicted
       N       E                     dE             d eps       ncg     rms          rms(c)
DAV:   1    -0.116559808855E+03    0.17513E-01   -0.73029E+01 19360   0.198E+01    0.684E-01
DAV:   2    -0.116583542776E+03   -0.23734E-01   -0.35895E-01 21160   0.361E+00    0.608E-01
DAV:   3    -0.116581238770E+03    0.23040E-02   -0.57494E-02 21540   0.317E+00    0.382E-01
DAV:   4    -0.116577343094E+03    0.38957E-02   -0.13281E-02 28260   0.841E-01    0.126E-01
DAV:   5    -0.116577161203E+03    0.18189E-03   -0.23662E-03 21660   0.778E-01    0.782E-02
DAV:   6    -0.116577079148E+03    0.82055E-04   -0.82287E-04 25320   0.363E-01    0.221E-02
DAV:   7    -0.116577094248E+03   -0.15100E-04   -0.25763E-04 21520   0.947E-02    0.162E-02
DAV:   8    -0.116577094949E+03   -0.70051E-06   -0.60634E-05 20960   0.101E-01
  52 F= -.11657709E+03 E0= -.11657688E+03  d E =-.580688E-02
 curvature: ****** expect dE=-0.419E+01 dE for cont linesearch -0.492E-02
 ZBRENT: bracketing found
 ZBRENT: interpolating
 opt :   3.8564  next Energy=  -116.578071 (dE=-0.678E-02)
 bond charge predicted
       N       E                     dE             d eps       ncg     rms          rms(c)
DAV:   1    -0.116572579673E+03    0.45146E-02   -0.27857E+01 19360   0.122E+01    0.421E-01
DAV:   2    -0.116580749969E+03   -0.81703E-02   -0.12832E-01 21200   0.211E+00    0.357E-01
DAV:   3    -0.116580017886E+03    0.73208E-03   -0.20283E-02 21680   0.194E+00    0.244E-01
DAV:   4    -0.116578452081E+03    0.15658E-02   -0.52298E-03 28860   0.612E-01    0.641E-02
DAV:   5    -0.116578398827E+03    0.53254E-04   -0.79793E-04 21880   0.445E-01    0.416E-02
DAV:   6    -0.116578385484E+03    0.13342E-04   -0.35915E-04 22760   0.207E-01    0.140E-02
DAV:   7    -0.116578391279E+03   -0.57942E-05   -0.85636E-05 20980   0.650E-02
  53 F= -.11657839E+03 E0= -.11657818E+03  d E =-.710321E-02
 curvature: -41.57 expect dE=-0.384E+00 dE for cont linesearch -0.423E-04
 trial: gam= 2.38709 g(F)=  0.924E-02 g(S)=  0.000E+00 ort = 0.543E-03 (trialstep = 0.139E+00)
 search vector abs. value=  0.166E+01
 bond charge predicted
       N       E                     dE             d eps       ncg     rms          rms(c)
DAV:   1    -0.116579619211E+03   -0.12337E-02   -0.97333E-01 19400   0.227E+00    0.775E-02
DAV:   2    -0.116579878565E+03   -0.25935E-03   -0.42592E-03 21160   0.350E-01    0.632E-02
DAV:   3    -0.116579858887E+03    0.19678E-04   -0.68386E-04 21680   0.356E-01    0.478E-02
DAV:   4    -0.116579795953E+03    0.62934E-04   -0.17861E-04 28860   0.143E-01    0.112E-02
DAV:   5    -0.116579794281E+03    0.16720E-05   -0.21393E-05 12400   0.637E-02
  54 F= -.11657979E+03 E0= -.11657958E+03  d E =-.140300E-02
 ZBRENT: can't locate minimum, use default step
 trial-energy change:   -0.001403  1 .order   -0.001394   -0.001460   -0.001329
 step:   0.5541(harm=  1.5410)  dis= 0.02554  next Energy=  -116.586513 (dE=-0.812E-02)
 bond charge predicted
       N       E                     dE             d eps       ncg     rms          rms(c)
DAV:   1    -0.116582047208E+03   -0.22513E-02   -0.87791E+00 19360   0.683E+00    0.234E-01
DAV:   2    -0.116584528748E+03   -0.24815E-02   -0.39358E-02 21160   0.105E+00    0.191E-01
DAV:   3    -0.116584328207E+03    0.20054E-03   -0.57858E-03 21680   0.105E+00    0.142E-01
DAV:   4    -0.116583789486E+03    0.53872E-03   -0.14987E-03 29160   0.389E-01    0.359E-02
DAV:   5    -0.116583771435E+03    0.18051E-04   -0.20610E-04 23100   0.180E-01    0.171E-02
DAV:   6    -0.116583774104E+03   -0.26688E-05   -0.99273E-05 21660   0.941E-02
  55 F= -.11658377E+03 E0= -.11658355E+03  d E =-.538282E-02
 curvature: -61.39 expect dE=-0.684E+00 dE for cont linesearch -0.256E-02
 ZBRENT: increasing intervall
 opt :   1.3852  next Energy=  -116.589649 (dE=-0.113E-01)
 bond charge predicted
       N       E                     dE             d eps       ncg     rms          rms(c)
DAV:   1    -0.116581881000E+03    0.18904E-02   -0.35350E+01 19360   0.137E+01    0.471E-01
DAV:   2    -0.116592319833E+03   -0.10439E-01   -0.16329E-01 21140   0.227E+00    0.400E-01
DAV:   3    -0.116591383139E+03    0.93669E-03   -0.25297E-02 21580   0.215E+00    0.275E-01
DAV:   4    -0.116589320467E+03    0.20627E-02   -0.60539E-03 28840   0.650E-01    0.748E-02
DAV:   5    -0.116589248643E+03    0.71824E-04   -0.84493E-04 21900   0.423E-01    0.435E-02
DAV:   6    -0.116589240243E+03    0.83996E-05   -0.41168E-04 24180   0.225E-01    0.162E-02
DAV:   7    -0.116589243793E+03   -0.35503E-05   -0.91856E-05 21060   0.662E-02
  56 F= -.11658924E+03 E0= -.11658907E+03  d E =-.108525E-01
 curvature: ****** expect dE=-0.215E+01 dE for cont linesearch -0.118E-02
 ZBRENT: increasing intervall
 opt :   3.0473  next Energy=  -116.587802 (dE=-0.941E-02)
 bond charge predicted
       N       E                     dE             d eps       ncg     rms          rms(c)
DAV:   1    -0.116545103190E+03    0.44137E-01   -0.14532E+02 19360   0.282E+01    0.977E-01
DAV:   2    -0.116594285958E+03   -0.49183E-01   -0.73651E-01 21140   0.550E+00    0.885E-01
DAV:   3    -0.116589521237E+03    0.47647E-02   -0.12959E-01 21680   0.472E+00    0.530E-01
DAV:   4    -0.116581932900E+03    0.75883E-02   -0.26257E-02 23420   0.109E+00    0.174E-01
DAV:   5    -0.116581814513E+03    0.11839E-03   -0.65526E-03 21720   0.120E+00    0.120E-01
DAV:   6    -0.116581592528E+03    0.22198E-03   -0.15963E-03 24340   0.565E-01    0.304E-02
DAV:   7    -0.116581630085E+03   -0.37556E-04   -0.55238E-04 21800   0.150E-01    0.254E-02
DAV:   8    -0.116581632975E+03   -0.28903E-05   -0.16724E-04 21160   0.152E-01    0.135E-02
DAV:   9    -0.116581630668E+03    0.23065E-05   -0.17481E-05 11940   0.607E-02
  57 F= -.11658163E+03 E0= -.11658152E+03  d E =-.323939E-02
 curvature: 172.20 expect dE= 0.513E+01 dE for cont linesearch  0.246E-01
 ZBRENT: bracketing found
 ZBRENT: interpolating
 opt :   1.7091  next Energy=  -116.589848 (dE=-0.115E-01)
 bond charge predicted
       N       E                     dE             d eps       ncg     rms          rms(c)
DAV:   1    -0.116569412475E+03    0.12221E-01   -0.92924E+01 19360   0.224E+01    0.788E-01
DAV:   2    -0.116598044754E+03   -0.28632E-01   -0.44537E-01 21160   0.453E+00    0.712E-01
DAV:   3    -0.116595124145E+03    0.29206E-02   -0.86255E-02 21640   0.387E+00    0.430E-01
DAV:   4    -0.116590399839E+03    0.47243E-02   -0.19095E-02 27760   0.105E+00    0.150E-01
DAV:   5    -0.116590210305E+03    0.18953E-03   -0.49725E-03 21780   0.105E+00    0.819E-02
DAV:   6    -0.116590109001E+03    0.10130E-03   -0.10040E-03 24920   0.376E-01    0.276E-02
DAV:   7    -0.116590130831E+03   -0.21830E-04   -0.32598E-04 21980   0.143E-01    0.211E-02
DAV:   8    -0.116590132516E+03   -0.16858E-05   -0.11855E-04 21020   0.120E-01    0.816E-03
DAV:   9    -0.116590132001E+03    0.51550E-06   -0.12425E-05 11560   0.327E-02
srun: Job step aborted: Waiting up to 32 seconds for job step to finish.
slurmstepd: error: *** JOB 4027 ON mngnode CANCELLED AT 2018-11-29T17:01:24 DUE TO TIME LIMIT ***
slurmstepd: error: *** STEP 4027.0 ON mngnode CANCELLED AT 2018-11-29T17:01:24 DUE TO TIME LIMIT ***
srun: got SIGCONT
srun: forcing job termination
forrtl: error (78): process killed (SIGTERM)

Stack trace terminated abnormally.
forrtl: error (78): process killed (SIGTERM)

Stack trace terminated abnormally.
forrtl: error (78): process killed (SIGTERM)

Stack trace terminated abnormally.
forrtl: error (78): process killed (SIGTERM)

Stack trace terminated abnormally.
forrtl: error (78): process killed (SIGTERM)

Stack trace terminated abnormally.
forrtl: error (78): process killed (SIGTERM)

Stack trace terminated abnormally.
forrtl: error (78): process killed (SIGTERM)

Stack trace terminated abnormally.
forrtl: error (78): process killed (SIGTERM)

Stack trace terminated abnormally.
forrtl: error (78): process killed (SIGTERM)

Stack trace terminated abnormally.
forrtl: error (78): process killed (SIGTERM)

Stack trace terminated abnormally.
forrtl: error (78): process killed (SIGTERM)

Stack trace terminated abnormally.
forrtl: error (78): process killed (SIGTERM)

Stack trace terminated abnormally.
forrtl: error (78): process killed (SIGTERM)

Stack trace terminated abnormally.
forrtl: error (78): process killed (SIGTERM)

Stack trace terminated abnormally.
forrtl: error (78): process killed (SIGTERM)

Stack trace terminated abnormally.
forrtl: error (78): process killed (SIGTERM)

Stack trace terminated abnormally.
forrtl: error (78): process killed (SIGTERM)

Stack trace terminated abnormally.
forrtl: error (78): process killed (SIGTERM)

Stack trace terminated abnormally.
forrtl: error (78): process killed (SIGTERM)

Stack trace terminated abnormally.
forrtl: error (78): process killed (SIGTERM)

Stack trace terminated abnormally.
