 running on   20 total cores
 distrk:  each k-point on   20 cores,    1 groups
 distr:  one band on    1 cores,   20 groups
 using from now: INCAR     
 vasp.5.4.1 05Feb16 (build Sep 02 2018 21:45:25) complex                        
  
 POSCAR found type information on POSCAR  Cu H 
 POSCAR found :  2 types and      37 ions
 scaLAPACK will be used

 ----------------------------------------------------------------------------- 
|                                                                             |
|           W    W    AA    RRRRR   N    N  II  N    N   GGGG   !!!           |
|           W    W   A  A   R    R  NN   N  II  NN   N  G    G  !!!           |
|           W    W  A    A  R    R  N N  N  II  N N  N  G       !!!           |
|           W WW W  AAAAAA  RRRRR   N  N N  II  N  N N  G  GGG   !            |
|           WW  WW  A    A  R   R   N   NN  II  N   NN  G    G                |
|           W    W  A    A  R    R  N    N  II  N    N   GGGG   !!!           |
|                                                                             |
|      For optimal performance we recommend to set                            |
|        NCORE= 4 - approx SQRT( number of cores)                             |
|      NCORE specifies how many cores store one orbital (NPAR=cpu/NCORE).     |
|      This setting can  greatly improve the performance of VASP for DFT.     |
|      The default, NPAR=number of cores might be grossly inefficient         |
|      on modern multi-core architectures or massively parallel machines.     |
|      Do your own testing !!!!                                               |
|      Unfortunately you need to use the default for GW and RPA calculations. |
|      (for HF NCORE is supported but not extensively tested yet)             |
|                                                                             |
 ----------------------------------------------------------------------------- 

 LDA part: xc-table for Ceperly-Alder, standard interpolation
 POSCAR, INCAR and KPOINTS ok, starting setup
 WARNING: small aliasing (wrap around) errors must be expected
 FFT: planning ...
 WAVECAR not read
 entering main loop
       N       E                     dE             d eps       ncg     rms          rms(c)
DAV:   1     0.277129742782E+04    0.27713E+04   -0.17254E+05  6240   0.171E+03
DAV:   2     0.839349751745E+02   -0.26874E+04   -0.25754E+04  6240   0.384E+02
DAV:   3    -0.147496862019E+03   -0.23143E+03   -0.22367E+03  6700   0.150E+02
DAV:   4    -0.153217143244E+03   -0.57203E+01   -0.56827E+01  7000   0.260E+01
DAV:   5    -0.153253722563E+03   -0.36579E-01   -0.36570E-01  6960   0.161E+00    0.383E+01
DAV:   6    -0.139101604401E+03    0.14152E+02   -0.30724E+02  7020   0.905E+01    0.192E+01
DAV:   7    -0.126838151116E+03    0.12263E+02   -0.54530E+01  7040   0.506E+01    0.472E+00
DAV:   8    -0.127081207498E+03   -0.24306E+00   -0.10238E+01  6920   0.319E+01    0.354E+00
DAV:   9    -0.127085038123E+03   -0.38306E-02   -0.23642E+00  7400   0.178E+01    0.379E+00
DAV:  10    -0.126934213016E+03    0.15083E+00   -0.97152E-01  7320   0.112E+01    0.300E+00
DAV:  11    -0.126784449564E+03    0.14976E+00   -0.88481E-01  6820   0.663E+00    0.703E-01
DAV:  12    -0.126773512795E+03    0.10937E-01   -0.19875E-01  6880   0.349E+00    0.563E-01
DAV:  13    -0.126758088143E+03    0.15425E-01   -0.36608E-02  7000   0.192E+00    0.192E-01
DAV:  14    -0.126782818047E+03   -0.24730E-01   -0.84926E-02 11360   0.437E+00    0.434E-01
DAV:  15    -0.126774302757E+03    0.85153E-02   -0.22349E-02  6660   0.923E-01    0.346E-01
DAV:  16    -0.126760097615E+03    0.14205E-01   -0.62007E-03 11480   0.933E-01    0.242E-01
DAV:  17    -0.126763404184E+03   -0.33066E-02   -0.77459E-02 11380   0.453E+00    0.325E-01
DAV:  18    -0.126760934682E+03    0.24695E-02   -0.17553E-02  6580   0.511E-01    0.298E-01
DAV:  19    -0.126754925002E+03    0.60097E-02   -0.17598E-03 11020   0.603E-01    0.226E-01
DAV:  20    -0.126757339722E+03   -0.24147E-02   -0.44505E-02 11860   0.368E+00    0.230E-01
DAV:  21    -0.126750096102E+03    0.72436E-02   -0.12398E-02  9660   0.190E+00    0.505E-02
DAV:  22    -0.126753538179E+03   -0.34421E-02   -0.33426E-03  7720   0.652E-01    0.113E-01
DAV:  23    -0.126753710893E+03   -0.17271E-03   -0.20666E-03  7640   0.716E-01    0.453E-02
DAV:  24    -0.126754198005E+03   -0.48711E-03   -0.76074E-04 10440   0.384E-01    0.478E-02
DAV:  25    -0.126754298061E+03   -0.10006E-03   -0.66109E-04  6680   0.179E-01    0.299E-02
DAV:  26    -0.126754954976E+03   -0.65692E-03   -0.90650E-04 10420   0.503E-01    0.619E-02
DAV:  27    -0.126754648192E+03    0.30678E-03   -0.31831E-04  8380   0.295E-01    0.182E-02
DAV:  28    -0.126754639128E+03    0.90639E-05   -0.17128E-04  5560   0.232E-01    0.222E-02
DAV:  29    -0.126754642767E+03   -0.36394E-05   -0.18103E-04  6800   0.230E-01    0.162E-02
DAV:  30    -0.126754684105E+03   -0.41337E-04   -0.46025E-05  6220   0.525E-02    0.243E-02
DAV:  31    -0.126754643351E+03    0.40753E-04   -0.51464E-05  6080   0.100E-01    0.114E-02
DAV:  32    -0.126754626765E+03    0.16587E-04   -0.12601E-05  4200   0.570E-02    0.323E-03
DAV:  33    -0.126754628781E+03   -0.20166E-05   -0.17583E-05  4000   0.229E-02
   1 F= -.12675463E+03 E0= -.12675382E+03  d E =-.126755E+03
 curvature:   0.00 expect dE= 0.000E+00 dE for cont linesearch  0.000E+00
 trial: gam= 0.00000 g(F)=  0.501E-02 g(S)=  0.000E+00 ort = 0.000E+00 (trialstep = 0.100E+01)
 search vector abs. value=  0.501E-02
 bond charge predicted
       N       E                     dE             d eps       ncg     rms          rms(c)
DAV:   1    -0.126759540848E+03   -0.49141E-02   -0.23258E-01  6240   0.106E+00    0.306E-02
DAV:   2    -0.126759614214E+03   -0.73367E-04   -0.81941E-04  6920   0.241E-01    0.359E-02
DAV:   3    -0.126759604852E+03    0.93623E-05   -0.24005E-04  6880   0.232E-01    0.209E-02
DAV:   4    -0.126759600077E+03    0.47756E-05   -0.79438E-05  6860   0.150E-01
   2 F= -.12675960E+03 E0= -.12675878E+03  d E =-.497130E-02
 ZBRENT: can't locate minimum, use default step
 trial-energy change:   -0.004971  1 .order   -0.004857   -0.005011   -0.004703
 step:   4.0000(harm= 16.2802)  dis= 0.00801  next Energy=  -126.795418 (dE=-0.408E-01)
 bond charge predicted
       N       E                     dE             d eps       ncg     rms          rms(c)
DAV:   1    -0.126771656094E+03   -0.12051E-01   -0.20950E+00  6240   0.319E+00    0.901E-02
DAV:   2    -0.126772249748E+03   -0.59365E-03   -0.76043E-03  6820   0.511E-01    0.831E-02
DAV:   3    -0.126772290221E+03   -0.40474E-04   -0.16553E-03  6920   0.519E-01    0.634E-02
DAV:   4    -0.126772330977E+03   -0.40756E-04   -0.68309E-04  6940   0.534E-01    0.625E-02
DAV:   5    -0.126772184111E+03    0.14687E-03   -0.33461E-04 10000   0.363E-01    0.162E-02
DAV:   6    -0.126772180318E+03    0.37927E-05   -0.95886E-05  7080   0.855E-02
   3 F= -.12677218E+03 E0= -.12677134E+03  d E =-.175515E-01
 curvature:  -2.88 expect dE=-0.824E-02 dE for cont linesearch -0.815E-02
 ZBRENT: increasing intervall
 opt :  10.0000  next Energy=  -126.789143 (dE=-0.345E-01)
 bond charge predicted
       N       E                     dE             d eps       ncg     rms          rms(c)
DAV:   1    -0.126787114931E+03   -0.14931E-01   -0.83912E+00  6240   0.638E+00    0.180E-01
DAV:   2    -0.126789527817E+03   -0.24129E-02   -0.30973E-02  6800   0.101E+00    0.170E-01
DAV:   3    -0.126789554439E+03   -0.26621E-04   -0.59522E-03  6920   0.903E-01    0.115E-01
DAV:   4    -0.126789721681E+03   -0.16724E-03   -0.19767E-03  7360   0.915E-01    0.117E-01
DAV:   5    -0.126789284138E+03    0.43754E-03   -0.15701E-03  9500   0.839E-01    0.353E-02
DAV:   6    -0.126789215496E+03    0.68642E-04   -0.39261E-04  9640   0.248E-01    0.221E-02
DAV:   7    -0.126789217134E+03   -0.16379E-05   -0.13776E-04  6940   0.102E-01    0.108E-02
DAV:   8    -0.126789216883E+03    0.25085E-06   -0.30995E-05  5180   0.471E-02
   4 F= -.12678922E+03 E0= -.12678832E+03  d E =-.345881E-01
 curvature:  -6.00 expect dE=-0.543E-02 dE for cont linesearch -0.442E-02
 ZBRENT: increasing intervall
 opt :  22.0000  next Energy=  -126.790150 (dE=-0.355E-01)
 bond charge predicted
       N       E                     dE             d eps       ncg     rms          rms(c)
DAV:   1    -0.126780709948E+03    0.85072E-02   -0.33745E+01  6240   0.128E+01    0.363E-01
DAV:   2    -0.126791292566E+03   -0.10583E-01   -0.13357E-01  6820   0.214E+00    0.365E-01
DAV:   3    -0.126790853186E+03    0.43938E-03   -0.21764E-02  6900   0.167E+00    0.217E-01
DAV:   4    -0.126789975515E+03    0.87767E-03   -0.43988E-03  8260   0.861E-01    0.143E-01
DAV:   5    -0.126789813251E+03    0.16226E-03   -0.26198E-03  6900   0.955E-01    0.535E-02
DAV:   6    -0.126789813072E+03    0.17882E-06   -0.10974E-03  8440   0.647E-01    0.684E-02
DAV:   7    -0.126789650801E+03    0.16227E-03   -0.37420E-04  7500   0.371E-01    0.190E-02
DAV:   8    -0.126789654633E+03   -0.38322E-05   -0.13681E-04  6920   0.625E-02    0.132E-02
DAV:   9    -0.126789653830E+03    0.80332E-06   -0.29781E-05  5620   0.540E-02
   5 F= -.12678965E+03 E0= -.12678860E+03  d E =-.350250E-01
 curvature:  -1.27 expect dE=-0.175E-02 dE for cont linesearch -0.823E-03
 ZBRENT: bracketing found
 ZBRENT: interpolating
 opt :  16.1880  next Energy=  -126.794898 (dE=-0.403E-01)
 bond charge predicted
       N       E                     dE             d eps       ncg     rms          rms(c)
DAV:   1    -0.126793306788E+03   -0.36522E-02   -0.78769E+00  6240   0.618E+00    0.182E-01
DAV:   2    -0.126795586130E+03   -0.22793E-02   -0.29831E-02  6940   0.112E+00    0.177E-01
DAV:   3    -0.126795523997E+03    0.62134E-04   -0.59104E-03  6880   0.972E-01    0.108E-01
DAV:   4    -0.126795923444E+03   -0.39945E-03   -0.21332E-03  7420   0.970E-01    0.120E-01
DAV:   5    -0.126795227586E+03    0.69586E-03   -0.14865E-03  8540   0.819E-01    0.286E-02
DAV:   6    -0.126795241206E+03   -0.13619E-04   -0.40663E-04  7860   0.191E-01    0.221E-02
DAV:   7    -0.126795240717E+03    0.48818E-06   -0.12025E-04  6700   0.942E-02    0.107E-02
DAV:   8    -0.126795239525E+03    0.11920E-05   -0.18219E-05  3840   0.294E-02
   6 F= -.12679524E+03 E0= -.12679428E+03  d E =-.406107E-01
 curvature:  -8.07 expect dE=-0.354E-02 dE for cont linesearch -0.222E-07
 trial: gam= 0.08676 g(F)=  0.438E-03 g(S)=  0.000E+00 ort = 0.371E-05 (trialstep = 0.404E+01)
 search vector abs. value=  0.477E-03
 bond charge predicted
       N       E                     dE             d eps       ncg     rms          rms(c)
DAV:   1    -0.126796577630E+03   -0.13369E-02   -0.36782E-01  6240   0.135E+00    0.391E-02
DAV:   2    -0.126796693380E+03   -0.11575E-03   -0.15009E-03  6780   0.194E-01    0.341E-02
DAV:   3    -0.126796695306E+03   -0.19255E-05   -0.17351E-04  6840   0.197E-01    0.263E-02
DAV:   4    -0.126796701230E+03   -0.59247E-05   -0.11488E-04  6680   0.231E-01    0.236E-02
DAV:   5    -0.126796673150E+03    0.28080E-04   -0.49232E-05  4320   0.163E-01    0.749E-03
DAV:   6    -0.126796673129E+03    0.20998E-07   -0.14991E-05  3640   0.308E-02
   7 F= -.12679667E+03 E0= -.12679572E+03  d E =-.143360E-02
 trial-energy change:   -0.001434  1 .order   -0.001503   -0.001772   -0.001234
 step:  13.3129(harm= 13.3129)  dis= 0.00773  next Energy=  -126.798160 (dE=-0.292E-02)
 bond charge predicted
       N       E                     dE             d eps       ncg     rms          rms(c)
DAV:   1    -0.126797636412E+03   -0.96326E-03   -0.19420E+00  6240   0.310E+00    0.881E-02
DAV:   2    -0.126798258745E+03   -0.62233E-03   -0.79492E-03  6740   0.496E-01    0.841E-02
DAV:   3    -0.126798239310E+03    0.19435E-04   -0.10473E-03  6880   0.391E-01    0.512E-02
DAV:   4    -0.126798278525E+03   -0.39216E-04   -0.36715E-04  8520   0.392E-01    0.500E-02
DAV:   5    -0.126798171513E+03    0.10701E-03   -0.29361E-04  8140   0.378E-01    0.162E-02
DAV:   6    -0.126798164679E+03    0.68335E-05   -0.57838E-05  6480   0.866E-02
   8 F= -.12679816E+03 E0= -.12679724E+03  d E =-.292515E-02
 curvature:  -7.23 expect dE=-0.130E-03 dE for cont linesearch -0.496E-05
 trial: gam=-0.01676 g(F)=  0.180E-04 g(S)=  0.000E+00 ort = 0.181E-04 (trialstep = 0.589E+01)
 search vector abs. value=  0.176E-04
 bond charge predicted
       N       E                     dE             d eps       ncg     rms          rms(c)
DAV:   1    -0.126798124356E+03    0.47157E-04   -0.30450E-02  6240   0.383E-01    0.123E-02
DAV:   2    -0.126798131486E+03   -0.71294E-05   -0.10265E-04  7060   0.995E-02    0.136E-02
DAV:   3    -0.126798131015E+03    0.47075E-06   -0.38081E-05  6220   0.935E-02
   9 F= -.12679813E+03 E0= -.12679721E+03  d E =0.336645E-04
 trial-energy change:    0.000034  1 .order   -0.000089   -0.000104   -0.000074
 step:  20.2945(harm= 20.2945)  dis= 0.00237  next Energy=  -126.798345 (dE=-0.180E-03)
 bond charge predicted
       N       E                     dE             d eps       ncg     rms          rms(c)
DAV:   1    -0.126798076702E+03    0.54784E-04   -0.18175E-01  6240   0.933E-01    0.301E-02
DAV:   2    -0.126798118515E+03   -0.41813E-04   -0.64107E-04  6980   0.195E-01    0.306E-02
DAV:   3    -0.126798113985E+03    0.45300E-05   -0.15223E-04  6860   0.145E-01    0.169E-02
DAV:   4    -0.126798123224E+03   -0.92396E-05   -0.59658E-05  6220   0.154E-01
  10 F= -.12679812E+03 E0= -.12679721E+03  d E =0.414551E-04
 curvature: -10.05 expect dE=-0.568E-04 dE for cont linesearch -0.292E-06
 trial: gam= 0.24984 g(F)=  0.565E-05 g(S)=  0.000E+00 ort = 0.714E-06 (trialstep = 0.877E+01)
 search vector abs. value=  0.710E-05
 reached required accuracy - stopping structural energy minimisation
