 running on   10 total cores
 distrk:  each k-point on   10 cores,    1 groups
 distr:  one band on    1 cores,   10 groups
 using from now: INCAR     
 vasp.5.4.1 24Jun15 (build Oct 26 2018 17:15:27) complex                        
  
 POSCAR found type information on POSCAR  Pt
 POSCAR found :  1 types and      12 ions
 scaLAPACK will be used

 ----------------------------------------------------------------------------- 
|                                                                             |
|           W    W    AA    RRRRR   N    N  II  N    N   GGGG   !!!           |
|           W    W   A  A   R    R  NN   N  II  NN   N  G    G  !!!           |
|           W    W  A    A  R    R  N N  N  II  N N  N  G       !!!           |
|           W WW W  AAAAAA  RRRRR   N  N N  II  N  N N  G  GGG   !            |
|           WW  WW  A    A  R   R   N   NN  II  N   NN  G    G                |
|           W    W  A    A  R    R  N    N  II  N    N   GGGG   !!!           |
|                                                                             |
|      For optimal performance we recommend to set                            |
|        NCORE= 4 - approx SQRT( number of cores)                             |
|      NCORE specifies how many cores store one orbital (NPAR=cpu/NCORE).     |
|      This setting can  greatly improve the performance of VASP for DFT.     |
|      The default, NPAR=number of cores might be grossly inefficient         |
|      on modern multi-core architectures or massively parallel machines.     |
|      Do your own testing !!!!                                               |
|      Unfortunately you need to use the default for GW and RPA calculations. |
|      (for HF NCORE is supported but not extensively tested yet)             |
|                                                                             |
 ----------------------------------------------------------------------------- 

 LDA part: xc-table for Ceperly-Alder, standard interpolation
 POSCAR, INCAR and KPOINTS ok, starting setup
 WARNING: small aliasing (wrap around) errors must be expected
 FFT: planning ...
 WAVECAR not read
 entering main loop
       N       E                     dE             d eps       ncg     rms          rms(c)
DAV:   1     0.122441407824E+04    0.12244E+04   -0.47558E+04  6560   0.125E+03
DAV:   2     0.529969179709E+02   -0.11714E+04   -0.10442E+04  6570   0.430E+02
DAV:   3    -0.668837824256E+02   -0.11988E+03   -0.10765E+03  8300   0.118E+02
DAV:   4    -0.730081748449E+02   -0.61244E+01   -0.58249E+01  8240   0.350E+01
DAV:   5    -0.731397351261E+02   -0.13156E+00   -0.13118E+00  8400   0.386E+00    0.127E+01
RMM:   6    -0.705436131006E+02    0.25961E+01   -0.10134E+01  6561   0.172E+01    0.839E+00
RMM:   7    -0.743565772200E+02   -0.38130E+01   -0.61548E+00  6581   0.977E+00    0.131E+01
RMM:   8    -0.768728692428E+02   -0.25163E+01   -0.30681E+00  6673   0.574E+00    0.147E+01
RMM:   9    -0.692194898298E+02    0.76534E+01   -0.12372E+00  6636   0.372E+00    0.402E+00
RMM:  10    -0.689480758403E+02    0.27141E+00   -0.14811E-01  6658   0.171E+00    0.205E+00
RMM:  11    -0.688833046788E+02    0.64771E-01   -0.66797E-02  6791   0.106E+00    0.103E+00
RMM:  12    -0.688698508315E+02    0.13454E-01   -0.20387E-02  6587   0.763E-01    0.746E-01
RMM:  13    -0.688619059177E+02    0.79449E-02   -0.10997E-02  6846   0.370E-01    0.234E-01
RMM:  14    -0.688608500405E+02    0.10559E-02   -0.60325E-04  7119   0.784E-02    0.620E-02
RMM:  15    -0.688605642353E+02    0.28581E-03   -0.53775E-04  6571   0.117E-01    0.631E-02
RMM:  16    -0.688604993451E+02    0.64890E-04   -0.55969E-05  5526   0.308E-02    0.460E-02
RMM:  17    -0.688605238874E+02   -0.24542E-04   -0.78784E-05  6071   0.406E-02    0.671E-02
RMM:  18    -0.688604898031E+02    0.34084E-04   -0.42103E-05  4883   0.227E-02    0.341E-02
RMM:  19    -0.688605495414E+02   -0.59738E-04   -0.13724E-05  4034   0.152E-02    0.412E-02
RMM:  20    -0.688605847580E+02   -0.35217E-04   -0.69792E-06  3904   0.107E-02    0.144E-02
RMM:  21    -0.688606908640E+02   -0.10611E-03   -0.16888E-05  4056   0.908E-03    0.161E-02
RMM:  22    -0.688607647660E+02   -0.73902E-04   -0.16085E-05  3917   0.783E-03    0.110E-02
RMM:  23    -0.688607968666E+02   -0.32101E-04   -0.12547E-05  4015   0.840E-03    0.195E-02
RMM:  24    -0.688607981458E+02   -0.12792E-05   -0.38971E-06  3648   0.655E-03
   1 F= -.68860798E+02 E0= -.68793418E+02  d E =-.688608E+02
 curvature:   0.00 expect dE= 0.000E+00 dE for cont linesearch  0.000E+00
 trial: gam= 0.00000 g(F)=  0.130E-02 g(S)=  0.000E+00 ort = 0.000E+00 (trialstep = 0.100E+01)
 search vector abs. value=  0.130E-02
 bond charge predicted
       N       E                     dE             d eps       ncg     rms          rms(c)
DAV:   1    -0.688618906363E+02   -0.10938E-02   -0.76205E-02  7130   0.792E-01    0.258E-02
RMM:   2    -0.688629188778E+02   -0.10282E-02   -0.10243E-03  6599   0.134E-01    0.244E-01
RMM:   3    -0.688620045510E+02    0.91433E-03   -0.19169E-04  7089   0.498E-02    0.325E-02
RMM:   4    -0.688619866862E+02    0.17865E-04   -0.18204E-05  3900   0.214E-02    0.197E-02
RMM:   5    -0.688619804458E+02    0.62404E-05   -0.64634E-06  3561   0.158E-02
   2 F= -.68861980E+02 E0= -.68794625E+02  d E =-.118230E-02
 ZBRENT: can't locate minimum, use default step
 trial-energy change:   -0.001182  1 .order   -0.001189   -0.001299   -0.001078
 step:   4.0000(harm=  5.8837)  dis= 0.00318  next Energy=   -68.864620 (dE=-0.382E-02)
 bond charge predicted
       N       E                     dE             d eps       ncg     rms          rms(c)
DAV:   1    -0.688636804995E+02   -0.16938E-02   -0.68739E-01  6820   0.238E+00    0.765E-02
RMM:   2    -0.688727166609E+02   -0.90362E-02   -0.89829E-03  6605   0.407E-01    0.724E-01
RMM:   3    -0.688646856849E+02    0.80310E-02   -0.17647E-03  7312   0.158E-01    0.912E-02
RMM:   4    -0.688645590355E+02    0.12665E-03   -0.20902E-04  6904   0.580E-02    0.617E-02
RMM:   5    -0.688645000909E+02    0.58945E-04   -0.31877E-05  4420   0.204E-02    0.433E-02
RMM:   6    -0.688644578762E+02    0.42215E-04   -0.24307E-04  6568   0.474E-02    0.200E-02
RMM:   7    -0.688644637050E+02   -0.58288E-05   -0.35091E-05  4745   0.310E-02
   3 F= -.68864464E+02 E0= -.68797164E+02  d E =-.366556E-02
 curvature:  -2.50 expect dE=-0.721E-03 dE for cont linesearch -0.684E-03
 ZBRENT: increasing intervall
 opt :  10.0000  next Energy=   -68.865141 (dE=-0.434E-02)
 bond charge predicted
       N       E                     dE             d eps       ncg     rms          rms(c)
DAV:   1    -0.688609955013E+02    0.34624E-02   -0.27361E+00  6560   0.475E+00    0.158E-01
RMM:   2    -0.688951613163E+02   -0.34166E-01   -0.38788E-02  6610   0.897E-01    0.138E+00
RMM:   3    -0.688653978765E+02    0.29763E-01   -0.79760E-03  8041   0.307E-01    0.207E-01
RMM:   4    -0.688647806097E+02    0.61727E-03   -0.81153E-04  6636   0.122E-01    0.124E-01
RMM:   5    -0.688645258949E+02    0.25471E-03   -0.15321E-04  6591   0.420E-02    0.846E-02
RMM:   6    -0.688645008735E+02    0.25021E-04   -0.18109E-04  6593   0.517E-02    0.880E-02
RMM:   7    -0.688643525272E+02    0.14835E-03   -0.61643E-04  6603   0.769E-02    0.222E-02
RMM:   8    -0.688643504703E+02    0.20569E-05   -0.56361E-05  5617   0.477E-02
   4 F= -.68864350E+02 E0= -.68797181E+02  d E =-.355232E-02
 curvature:  -2.48 expect dE=-0.629E-03 dE for cont linesearch -0.451E-03
 ZBRENT: bracketing found
 ZBRENT: interpolating
 opt :   7.3042  next Energy=   -68.865005 (dE=-0.421E-02)
 bond charge predicted
       N       E                     dE             d eps       ncg     rms          rms(c)
DAV:   1    -0.688645827646E+02   -0.23024E-03   -0.55637E-01  6560   0.213E+00    0.624E-02
RMM:   2    -0.688709510794E+02   -0.63683E-02   -0.70784E-03  6608   0.356E-01    0.597E-01
RMM:   3    -0.688653729809E+02    0.55781E-02   -0.12839E-03  7575   0.131E-01    0.766E-02
RMM:   4    -0.688652665203E+02    0.10646E-03   -0.12970E-04  6558   0.490E-02    0.497E-02
RMM:   5    -0.688652306621E+02    0.35858E-04   -0.20702E-05  3825   0.170E-02    0.379E-02
RMM:   6    -0.688652189550E+02    0.11707E-04   -0.92046E-05  6356   0.339E-02    0.399E-02
RMM:   7    -0.688651957131E+02    0.23242E-04   -0.10489E-04  6514   0.318E-02    0.133E-02
RMM:   8    -0.688651933118E+02    0.24014E-05   -0.85456E-06  3555   0.183E-02
   5 F= -.68865193E+02 E0= -.68797968E+02  d E =-.439517E-02
 curvature:  -3.60 expect dE=-0.218E-03 dE for cont linesearch -0.347E-04
 trial: gam= 0.00000 g(F)=  0.606E-04 g(S)=  0.000E+00 ort =-0.112E-03 (trialstep = 0.226E+01)
 search vector abs. value=  0.606E-04
 bond charge predicted
       N       E                     dE             d eps       ncg     rms          rms(c)
DAV:   1    -0.688652877020E+02   -0.91989E-04   -0.18290E-02  6720   0.375E-01    0.145E-02
RMM:   2    -0.688655081574E+02   -0.22046E-03   -0.29214E-04  6488   0.689E-02    0.110E-01
RMM:   3    -0.688653187226E+02    0.18943E-03   -0.35132E-05  4786   0.228E-02    0.226E-02
RMM:   4    -0.688653109698E+02    0.77529E-05   -0.86613E-06  3688   0.168E-02
   6 F= -.68865311E+02 E0= -.68798097E+02  d E =-.117658E-03
 trial-energy change:   -0.000118  1 .order   -0.000118   -0.000137   -0.000100
 step:   8.3779(harm=  8.3779)  dis= 0.00009  next Energy=   -68.865447 (dE=-0.254E-03)
 bond charge predicted
       N       E                     dE             d eps       ncg     rms          rms(c)
DAV:   1    -0.688653792452E+02   -0.60523E-04   -0.13561E-01  6560   0.102E+00    0.409E-02
RMM:   2    -0.688683450544E+02   -0.29658E-02   -0.21605E-03  6617   0.183E-01    0.417E-01
RMM:   3    -0.688655785062E+02    0.27665E-02   -0.33527E-04  6750   0.637E-02    0.483E-02
RMM:   4    -0.688655318523E+02    0.46654E-04   -0.35598E-05  4714   0.261E-02    0.287E-02
RMM:   5    -0.688655201981E+02    0.11654E-04   -0.99976E-06  3711   0.166E-02    0.232E-02
RMM:   6    -0.688655215546E+02   -0.13565E-05   -0.28227E-05  4196   0.227E-02
   7 F= -.68865522E+02 E0= -.68798322E+02  d E =-.328243E-03
 curvature:  -4.19 expect dE=-0.144E-03 dE for cont linesearch -0.376E-04
 trial: gam= 0.18359 g(F)=  0.345E-04 g(S)=  0.000E+00 ort = 0.233E-04 (trialstep = 0.348E+01)
 search vector abs. value=  0.451E-04
 bond charge predicted
       N       E                     dE             d eps       ncg     rms          rms(c)
DAV:   1    -0.688655760952E+02   -0.55897E-04   -0.31505E-02  6560   0.516E-01    0.165E-02
RMM:   2    -0.688656284872E+02   -0.52392E-04   -0.44026E-04  6556   0.102E-01    0.292E-02
RMM:   3    -0.688656622632E+02   -0.33776E-04   -0.74716E-05  5935   0.283E-02    0.503E-02
RMM:   4    -0.688656216207E+02    0.40642E-04   -0.11199E-05  3642   0.195E-02    0.117E-02
RMM:   5    -0.688656197507E+02    0.18700E-05   -0.32755E-06  3522   0.106E-02
   8 F= -.68865620E+02 E0= -.68798431E+02  d E =-.981962E-04
 ZBRENT: can't locate minimum, use default step
 trial-energy change:   -0.000098  1 .order   -0.000121   -0.000135   -0.000108
 step:  13.9370(harm= 17.4241)  dis= 0.00010  next Energy=   -68.865859 (dE=-0.337E-03)
 bond charge predicted
       N       E                     dE             d eps       ncg     rms          rms(c)
DAV:   1    -0.688655262169E+02    0.95404E-04   -0.28443E-01  6560   0.153E+00    0.394E-02
RMM:   2    -0.688662964065E+02   -0.77019E-03   -0.35783E-03  6610   0.273E-01    0.167E-01
RMM:   3    -0.688659195616E+02    0.37684E-03   -0.42369E-04  8076   0.751E-02    0.544E-02
RMM:   4    -0.688658764244E+02    0.43137E-04   -0.23217E-05  4402   0.214E-02    0.351E-02
RMM:   5    -0.688658653548E+02    0.11070E-04   -0.12328E-05  3605   0.186E-02    0.320E-02
RMM:   6    -0.688658513405E+02    0.14014E-04   -0.12098E-04  6545   0.361E-02    0.243E-02
RMM:   7    -0.688658443125E+02    0.70281E-05   -0.24291E-05  3906   0.228E-02
   9 F= -.68865844E+02 E0= -.68798694E+02  d E =-.322758E-03
 curvature:  -9.50 expect dE=-0.127E-03 dE for cont linesearch -0.973E-04
 trial: gam=-0.11655 g(F)=  0.134E-04 g(S)=  0.000E+00 ort = 0.215E-04 (trialstep = 0.557E+01)
 search vector abs. value=  0.900E-05
 bond charge predicted
       N       E                     dE             d eps       ncg     rms          rms(c)
DAV:   1    -0.688658627934E+02   -0.11453E-04   -0.16078E-02  6560   0.364E-01    0.143E-02
RMM:   2    -0.688659442829E+02   -0.81490E-04   -0.24390E-04  6528   0.690E-02    0.603E-02
RMM:   3    -0.688658981053E+02    0.46178E-04   -0.36409E-05  4670   0.234E-02    0.282E-02
RMM:   4    -0.688658872772E+02    0.10828E-04   -0.10321E-05  3691   0.185E-02    0.134E-02
RMM:   5    -0.688658848187E+02    0.24585E-05   -0.31239E-06  3421   0.113E-02
  10 F= -.68865885E+02 E0= -.68798760E+02  d E =-.405062E-04
 trial-energy change:   -0.000041  1 .order   -0.000052   -0.000061   -0.000043
 step:  19.1023(harm= 19.1023)  dis= 0.00080  next Energy=   -68.865948 (dE=-0.104E-03)
 bond charge predicted
       N       E                     dE             d eps       ncg     rms          rms(c)
DAV:   1    -0.688658645418E+02    0.22735E-04   -0.96245E-02  6560   0.885E-01    0.279E-02
RMM:   2    -0.688665201968E+02   -0.65566E-03   -0.13572E-03  6598   0.155E-01    0.181E-01
RMM:   3    -0.688660083070E+02    0.51189E-03   -0.14944E-04  6769   0.471E-02    0.417E-02
RMM:   4    -0.688659815837E+02    0.26723E-04   -0.20836E-05  4067   0.216E-02    0.234E-02
RMM:   5    -0.688659757118E+02    0.58719E-05   -0.63347E-06  3554   0.151E-02
  11 F= -.68865976E+02 E0= -.68798876E+02  d E =-.131399E-03
 curvature:  -7.89 expect dE=-0.935E-04 dE for cont linesearch -0.324E-04
 trial: gam= 0.33329 g(F)=  0.118E-04 g(S)=  0.000E+00 ort = 0.607E-05 (trialstep = 0.441E+01)
 search vector abs. value=  0.169E-04
 bond charge predicted
       N       E                     dE             d eps       ncg     rms          rms(c)
DAV:   1    -0.688660012029E+02   -0.19619E-04   -0.19266E-02  6560   0.398E-01    0.202E-02
RMM:   2    -0.688661580242E+02   -0.15682E-03   -0.25746E-04  6554   0.683E-02    0.954E-02
RMM:   3    -0.688660440030E+02    0.11402E-03   -0.32038E-05  4454   0.228E-02    0.391E-02
RMM:   4    -0.688660185091E+02    0.25494E-04   -0.10915E-05  3752   0.186E-02    0.142E-02
RMM:   5    -0.688660153293E+02    0.31798E-05   -0.56858E-06  3454   0.126E-02
  12 F= -.68866015E+02 E0= -.68798925E+02  d E =-.396175E-04
 trial-energy change:   -0.000040  1 .order   -0.000048   -0.000061   -0.000036
 step:  10.6378(harm= 10.6378)  dis= 0.00089  next Energy=   -68.866049 (dE=-0.738E-04)
 bond charge predicted
       N       E                     dE             d eps       ncg     rms          rms(c)
DAV:   1    -0.688660247856E+02   -0.62765E-05   -0.38459E-02  6560   0.562E-01    0.216E-02
RMM:   2    -0.688665008632E+02   -0.47608E-03   -0.60476E-04  6586   0.958E-02    0.159E-01
RMM:   3    -0.688660955888E+02    0.40527E-03   -0.77487E-05  6140   0.353E-02    0.394E-02
RMM:   4    -0.688660699520E+02    0.25637E-04   -0.18394E-05  3942   0.210E-02    0.155E-02
RMM:   5    -0.688660671709E+02    0.27811E-05   -0.59989E-06  3547   0.143E-02
  13 F= -.68866067E+02 E0= -.68798989E+02  d E =-.914592E-04
 curvature:  -6.48 expect dE=-0.383E-04 dE for cont linesearch -0.903E-05
 trial: gam= 0.00000 g(F)=  0.592E-05 g(S)=  0.000E+00 ort = 0.485E-05 (trialstep = 0.565E+01)
 search vector abs. value=  0.592E-05
 reached required accuracy - stopping structural energy minimisation
 writing wavefunctions
