 running on   20 total cores
 distrk:  each k-point on   20 cores,    1 groups
 distr:  one band on    1 cores,   20 groups
 using from now: INCAR     
 vasp.5.4.1 05Feb16 (build Sep 02 2018 21:45:25) complex                        
  
 POSCAR found type information on POSCAR  Si
 POSCAR found :  1 types and      63 ions
 scaLAPACK will be used

 ----------------------------------------------------------------------------- 
|                                                                             |
|           W    W    AA    RRRRR   N    N  II  N    N   GGGG   !!!           |
|           W    W   A  A   R    R  NN   N  II  NN   N  G    G  !!!           |
|           W    W  A    A  R    R  N N  N  II  N N  N  G       !!!           |
|           W WW W  AAAAAA  RRRRR   N  N N  II  N  N N  G  GGG   !            |
|           WW  WW  A    A  R   R   N   NN  II  N   NN  G    G                |
|           W    W  A    A  R    R  N    N  II  N    N   GGGG   !!!           |
|                                                                             |
|      For optimal performance we recommend to set                            |
|        NCORE= 4 - approx SQRT( number of cores)                             |
|      NCORE specifies how many cores store one orbital (NPAR=cpu/NCORE).     |
|      This setting can  greatly improve the performance of VASP for DFT.     |
|      The default, NPAR=number of cores might be grossly inefficient         |
|      on modern multi-core architectures or massively parallel machines.     |
|      Do your own testing !!!!                                               |
|      Unfortunately you need to use the default for GW and RPA calculations. |
|      (for HF NCORE is supported but not extensively tested yet)             |
|                                                                             |
 ----------------------------------------------------------------------------- 


 ----------------------------------------------------------------------------- 
|                                                                             |
|  ADVICE TO THIS USER RUNNING 'VASP/VAMP'   (HEAR YOUR MASTER'S VOICE ...):  |
|                                                                             |
|      You have a (more or less) 'large supercell' and for larger cells       |
|      it might be more efficient to use real space projection operators      |
|      So try LREAL= Auto  in the INCAR   file.                               |
|      Mind: If you want to do a very accurate calculations keep the          |
|      reciprocal projection scheme          (i.e. LREAL=.FALSE.)             |
|                                                                             |
 ----------------------------------------------------------------------------- 

 LDA part: xc-table for Ceperly-Alder, standard interpolation

 ----------------------------------------------------------------------------- 
|                                                                             |
|           W    W    AA    RRRRR   N    N  II  N    N   GGGG   !!!           |
|           W    W   A  A   R    R  NN   N  II  NN   N  G    G  !!!           |
|           W    W  A    A  R    R  N N  N  II  N N  N  G       !!!           |
|           W WW W  AAAAAA  RRRRR   N  N N  II  N  N N  G  GGG   !            |
|           WW  WW  A    A  R   R   N   NN  II  N   NN  G    G                |
|           W    W  A    A  R    R  N    N  II  N    N   GGGG   !!!           |
|                                                                             |
|      VASP found    186 degrees of freedom                                   |
|      the temperature will equal 2*E(kin)/ (degrees of freedom)              |
|      this differs from previous releases, where T was 2*E(kin)/(3 NIONS).   |
|      The new definition is more consistent                                  |
|                                                                             |
 ----------------------------------------------------------------------------- 

 POSCAR, INCAR and KPOINTS ok, starting setup
 WARNING: small aliasing (wrap around) errors must be expected
 FFT: planning ...
 WAVECAR not read
 prediction of wavefunctions initialized - no I/O
 entering main loop
       N       E                     dE             d eps       ncg     rms          rms(c)
DAV:   1     0.651825369304E+03    0.65183E+03   -0.94402E+04   320   0.126E+03
DAV:   2    -0.270131251992E+03   -0.92196E+03   -0.88525E+03   380   0.178E+02
DAV:   3    -0.336770913482E+03   -0.66640E+02   -0.65331E+02   400   0.427E+01
DAV:   4    -0.338285801687E+03   -0.15149E+01   -0.15033E+01   380   0.784E+00
DAV:   5    -0.338324686710E+03   -0.38885E-01   -0.38783E-01   380   0.132E+00    0.172E+01
DAV:   6    -0.334241903094E+03    0.40828E+01   -0.39807E+00   380   0.281E+00    0.102E+01
DAV:   7    -0.332464098147E+03    0.17778E+01   -0.43002E+00   360   0.341E+00    0.138E+00
DAV:   8    -0.332512094929E+03   -0.47997E-01   -0.22617E-01   380   0.942E-01    0.594E-01
DAV:   9    -0.332524652889E+03   -0.12558E-01   -0.37423E-02   420   0.402E-01    0.144E-01
DAV:  10    -0.332526687797E+03   -0.20349E-02   -0.81418E-03   360   0.181E-01    0.719E-02
DAV:  11    -0.332527211535E+03   -0.52374E-03   -0.15373E-03   380   0.747E-02    0.243E-02
DAV:  12    -0.332527292824E+03   -0.81290E-04   -0.28453E-04   300   0.305E-02
    1 T=     0. E= -.33251970E+03 F= -.33252729E+03 E0= -.33244954E+03  EK= 0.22516E-03 SP= 0.00E+00 SK= 0.74E-02
 bond charge predicted
       N       E                     dE             d eps       ncg     rms          rms(c)
DAV:   1    -0.332529034928E+03   -0.18234E-02   -0.28051E-03   360   0.101E-01    0.130E-02
DAV:   2    -0.332529044147E+03   -0.92191E-05   -0.14454E-04   280   0.257E-02    0.793E-03
DAV:   3    -0.332529045070E+03   -0.92298E-06   -0.19337E-05   220   0.996E-03    0.364E-03
DAV:   4    -0.332529045534E+03   -0.46432E-06   -0.44050E-06   220   0.463E-03    0.163E-03
DAV:   5    -0.332529045690E+03   -0.15589E-06   -0.10858E-06   220   0.244E-03    0.669E-04
DAV:   6    -0.332529045704E+03   -0.13774E-07   -0.26975E-07   220   0.134E-03
    2 T=     0. E= -.33252029E+03 F= -.33252905E+03 E0= -.33245129E+03  EK= 0.19636E-02 SP= -.60E-01 SK= 0.66E-01
 bond charge predicted
 prediction of wavefunctions
       N       E                     dE             d eps       ncg     rms          rms(c)
DAV:   1    -0.332532062581E+03   -0.30169E-02   -0.27505E-03   360   0.112E-01    0.104E-02
DAV:   2    -0.332532091348E+03   -0.28767E-04   -0.30984E-04   300   0.339E-02    0.636E-03
DAV:   3    -0.332532092496E+03   -0.11478E-05   -0.21002E-05   220   0.103E-02    0.413E-03
DAV:   4    -0.332532093200E+03   -0.70418E-06   -0.51263E-06   220   0.514E-03    0.194E-03
DAV:   5    -0.332532093728E+03   -0.52868E-06   -0.16529E-06   220   0.280E-03    0.503E-04
DAV:   6    -0.332532093801E+03   -0.72420E-07   -0.35458E-07   220   0.136E-03
    3 T=     1. E= -.33252134E+03 F= -.33253209E+03 E0= -.33245430E+03  EK= 0.51602E-02 SP= -.18E+00 SK= 0.18E+00
 bond charge predicted
 prediction of wavefunctions
       N       E                     dE             d eps       ncg     rms          rms(c)
DAV:   1    -0.332535814234E+03   -0.37205E-02   -0.11071E-03   320   0.104E-01    0.171E-02
DAV:   2    -0.332535860388E+03   -0.46154E-04   -0.50598E-04   340   0.424E-02    0.132E-02
DAV:   3    -0.332535858838E+03    0.15495E-05   -0.16049E-05   220   0.897E-03    0.794E-03
DAV:   4    -0.332535858917E+03   -0.78484E-07   -0.11223E-05   220   0.652E-03    0.200E-03
DAV:   5    -0.332535859134E+03   -0.21756E-06   -0.18806E-06   220   0.309E-03    0.109E-03
DAV:   6    -0.332535859122E+03    0.12385E-07   -0.39490E-07   220   0.168E-03
    4 T=     1. E= -.33252272E+03 F= -.33253586E+03 E0= -.33245800E+03  EK= 0.94507E-02 SP= -.36E+00 SK= 0.36E+00
Information: wavefunction orthogonal band  160  0.7468
 bond charge predicted
 prediction of wavefunctions
       N       E                     dE             d eps       ncg     rms          rms(c)
DAV:   1    -0.332539851975E+03   -0.39928E-02   -0.12034E-03   220   0.104E-01    0.102E-03
DAV:   2    -0.332539853887E+03   -0.19118E-05   -0.19114E-05   220   0.672E-03    0.115E-03
DAV:   3    -0.332539854250E+03   -0.36278E-06   -0.37071E-06   220   0.325E-03    0.104E-03
DAV:   4    -0.332539854341E+03   -0.91343E-07   -0.11305E-06   220   0.170E-03    0.840E-04
DAV:   5    -0.332539854377E+03   -0.35691E-07   -0.65715E-07   220   0.147E-03    0.390E-04
DAV:   6    -0.332539854386E+03   -0.90804E-08   -0.25404E-07   220   0.837E-04
    5 T=     2. E= -.33252427E+03 F= -.33253985E+03 E0= -.33246192E+03  EK= 0.14638E-01 SP= -.59E+00 SK= 0.60E+00
 bond charge predicted
 prediction of wavefunctions
       N       E                     dE             d eps       ncg     rms          rms(c)
DAV:   1    -0.332543899642E+03   -0.40453E-02   -0.17555E-03   280   0.118E-01    0.111E-03
DAV:   2    -0.332543902908E+03   -0.32659E-05   -0.33748E-05   280   0.628E-03    0.873E-04
DAV:   3    -0.332543903119E+03   -0.21151E-06   -0.23087E-06   220   0.215E-03    0.584E-04
DAV:   4    -0.332543903183E+03   -0.63957E-07   -0.68546E-07   220   0.112E-03    0.224E-04
DAV:   5    -0.332543903220E+03   -0.36323E-07   -0.29621E-07   220   0.661E-04    0.734E-05
DAV:   6    -0.332543903231E+03   -0.11446E-07   -0.11839E-07   220   0.368E-04
    6 T=     3. E= -.33252575E+03 F= -.33254390E+03 E0= -.33246586E+03  EK= 0.20903E-01 SP= -.89E+00 SK= 0.89E+00
 bond charge predicted
 prediction of wavefunctions
       N       E                     dE             d eps       ncg     rms          rms(c)
DAV:   1    -0.332548154415E+03   -0.42512E-02   -0.22413E-03   200   0.130E-01    0.149E-03
DAV:   2    -0.332548155174E+03   -0.75963E-06   -0.82655E-06   220   0.535E-03    0.736E-04
DAV:   3    -0.332548155268E+03   -0.93604E-07   -0.10918E-06   220   0.215E-03    0.554E-04
DAV:   4    -0.332548155291E+03   -0.22847E-07   -0.31152E-07   180   0.110E-03    0.238E-04
DAV:   5    -0.332548155307E+03   -0.16404E-07   -0.12520E-07   160   0.561E-04    0.114E-04
DAV:   6    -0.332548155316E+03   -0.90540E-08   -0.48491E-08   160   0.297E-04
    7 T=     4. E= -.33252693E+03 F= -.33254816E+03 E0= -.33246999E+03  EK= 0.28858E-01 SP= -.12E+01 SK= 0.12E+01
 bond charge predicted
 prediction of wavefunctions
       N       E                     dE             d eps       ncg     rms          rms(c)
DAV:   1    -0.332552847721E+03   -0.46924E-02   -0.28200E-03   220   0.147E-01    0.192E-03
DAV:   2    -0.332552849625E+03   -0.19038E-05   -0.21606E-05   220   0.822E-03    0.111E-03
DAV:   3    -0.332552849842E+03   -0.21686E-06   -0.26660E-06   220   0.333E-03    0.811E-04
DAV:   4    -0.332552849874E+03   -0.32616E-07   -0.59288E-07   220   0.145E-03    0.635E-04
DAV:   5    -0.332552849860E+03    0.14442E-07   -0.24645E-07   220   0.907E-04    0.209E-04
DAV:   6    -0.332552849868E+03   -0.82373E-08   -0.12015E-07   220   0.519E-04
    8 T=     5. E= -.33252759E+03 F= -.33255285E+03 E0= -.33247453E+03  EK= 0.39440E-01 SP= -.17E+01 SK= 0.16E+01
 bond charge predicted
 prediction of wavefunctions
       N       E                     dE             d eps       ncg     rms          rms(c)
DAV:   1    -0.332557994059E+03   -0.51442E-02   -0.35067E-03   200   0.172E-01    0.285E-03
DAV:   2    -0.332557998244E+03   -0.41855E-05   -0.47372E-05   220   0.126E-02    0.181E-03
DAV:   3    -0.332557998594E+03   -0.34972E-06   -0.48467E-06   220   0.486E-03    0.136E-03
DAV:   4    -0.332557998614E+03   -0.20112E-07   -0.92260E-07   220   0.210E-03    0.110E-03
DAV:   5    -0.332557998549E+03    0.64782E-07   -0.41022E-07   220   0.137E-03    0.354E-04
DAV:   6    -0.332557998562E+03   -0.12267E-07   -0.21266E-07   220   0.788E-04
    9 T=     7. E= -.33252748E+03 F= -.33255800E+03 E0= -.33247950E+03  EK= 0.53715E-01 SP= -.21E+01 SK= 0.21E+01
 bond charge predicted
 prediction of wavefunctions
       N       E                     dE             d eps       ncg     rms          rms(c)
DAV:   1    -0.332563135757E+03   -0.51372E-02   -0.43301E-03   200   0.206E-01    0.416E-03
DAV:   2    -0.332563145177E+03   -0.94202E-05   -0.10526E-04   240   0.187E-02    0.273E-03
DAV:   3    -0.332563145615E+03   -0.43759E-06   -0.78086E-06   220   0.644E-03    0.203E-03
DAV:   4    -0.332563145556E+03    0.59045E-07   -0.13819E-06   180   0.281E-03    0.140E-03
DAV:   5    -0.332563145457E+03    0.99011E-07   -0.68083E-07   160   0.177E-03    0.390E-04
DAV:   6    -0.332563145477E+03   -0.20268E-07   -0.26335E-07   160   0.972E-04
   10 T=     9. E= -.33252638E+03 F= -.33256315E+03 E0= -.33248443E+03  EK= 0.72760E-01 SP= -.27E+01 SK= 0.26E+01
 bond charge predicted
 prediction of wavefunctions
       N       E                     dE             d eps       ncg     rms          rms(c)
DAV:   1    -0.332567326709E+03   -0.41813E-02   -0.53480E-03   180   0.246E-01    0.554E-03
DAV:   2    -0.332567346775E+03   -0.20066E-04   -0.21804E-04   280   0.267E-02    0.417E-03
DAV:   3    -0.332567347019E+03   -0.24445E-06   -0.10544E-05   220   0.782E-03    0.310E-03
DAV:   4    -0.332567346658E+03    0.36118E-06   -0.20284E-06   180   0.356E-03    0.179E-03
DAV:   5    -0.332567346520E+03    0.13790E-06   -0.11266E-06   160   0.219E-03    0.495E-04
DAV:   6    -0.332567346537E+03   -0.16469E-07   -0.28504E-07   160   0.117E-03
   11 T=    12. E= -.33252411E+03 F= -.33256735E+03 E0= -.33248837E+03  EK= 0.97746E-01 SP= -.33E+01 SK= 0.32E+01
 bond charge predicted
 prediction of wavefunctions
       N       E                     dE             d eps       ncg     rms          rms(c)
DAV:   1    -0.332569322596E+03   -0.19761E-02   -0.66195E-03   200   0.288E-01    0.727E-03
DAV:   2    -0.332569360658E+03   -0.38062E-04   -0.41142E-04   340   0.364E-02    0.589E-03
DAV:   3    -0.332569359920E+03    0.73819E-06   -0.79231E-06   180   0.734E-03    0.432E-03
DAV:   4    -0.332569358917E+03    0.10031E-05   -0.34050E-06   160   0.403E-03    0.181E-03
DAV:   5    -0.332569358898E+03    0.19188E-07   -0.17595E-06   160   0.241E-03    0.693E-04
DAV:   6    -0.332569358910E+03   -0.12279E-07   -0.26912E-07   160   0.124E-03
   12 T=    16. E= -.33252061E+03 F= -.33256936E+03 E0= -.33249004E+03  EK= 0.13028E+00 SP= -.39E+01 SK= 0.38E+01
 bond charge predicted
 prediction of wavefunctions
       N       E                     dE             d eps       ncg     rms          rms(c)
DAV:   1    -0.332567796904E+03    0.15620E-02   -0.81789E-03   240   0.331E-01    0.795E-03
DAV:   2    -0.332567849143E+03   -0.52239E-04   -0.55496E-04   340   0.426E-02    0.714E-03
DAV:   3    -0.332567848052E+03    0.10912E-05   -0.10252E-05   220   0.834E-03    0.536E-03
DAV:   4    -0.332567846460E+03    0.15914E-05   -0.51670E-06   220   0.490E-03    0.217E-03
DAV:   5    -0.332567846459E+03    0.12496E-08   -0.28655E-06   220   0.304E-03    0.856E-04
DAV:   6    -0.332567846477E+03   -0.17868E-07   -0.45060E-07   200   0.162E-03
   13 T=    22. E= -.33251594E+03 F= -.33256785E+03 E0= -.33248803E+03  EK= 0.17290E+00 SP= -.46E+01 SK= 0.45E+01
 bond charge predicted
 prediction of wavefunctions
       N       E                     dE             d eps       ncg     rms          rms(c)
DAV:   1    -0.332561352918E+03    0.64935E-02   -0.10056E-02   340   0.376E-01    0.792E-03
DAV:   2    -0.332561400211E+03   -0.47293E-04   -0.50850E-04   320   0.420E-02    0.624E-03
DAV:   3    -0.332561399591E+03    0.62009E-06   -0.10086E-05   220   0.814E-03    0.447E-03
DAV:   4    -0.332561398601E+03    0.98965E-06   -0.43030E-06   220   0.460E-03    0.163E-03
DAV:   5    -0.332561398657E+03   -0.55738E-07   -0.20143E-06   220   0.267E-03    0.769E-04
DAV:   6    -0.332561398671E+03   -0.14048E-07   -0.33078E-07   220   0.138E-03
   14 T=    29. E= -.33251033E+03 F= -.33256140E+03 E0= -.33248083E+03  EK= 0.22967E+00 SP= -.54E+01 SK= 0.52E+01
 bond charge predicted
 prediction of wavefunctions
       N       E                     dE             d eps       ncg     rms          rms(c)
DAV:   1    -0.332548131765E+03    0.13267E-01   -0.12626E-02   480   0.429E-01    0.798E-03
DAV:   2    -0.332548206993E+03   -0.75228E-04   -0.78216E-04   340   0.479E-02    0.492E-03
DAV:   3    -0.332548207354E+03   -0.36143E-06   -0.13000E-05   220   0.834E-03    0.331E-03
DAV:   4    -0.332548207101E+03    0.25308E-06   -0.37230E-06   220   0.413E-03    0.135E-03
DAV:   5    -0.332548207128E+03   -0.26964E-07   -0.15510E-06   220   0.238E-03    0.555E-04
DAV:   6    -0.332548207169E+03   -0.41153E-07   -0.40081E-07   220   0.126E-03
   15 T=    38. E= -.33250423E+03 F= -.33254821E+03 E0= -.33246643E+03  EK= 0.30664E+00 SP= -.62E+01 SK= 0.59E+01
Information: wavefunction orthogonal band  160  0.7636
 bond charge predicted
 prediction of wavefunctions
       N       E                     dE             d eps       ncg     rms          rms(c)
DAV:   1    -0.332525428607E+03    0.22779E-01   -0.16009E-02   380   0.495E-01    0.937E-03
DAV:   2    -0.332525522111E+03   -0.93505E-04   -0.97642E-04   360   0.604E-02    0.523E-03
DAV:   3    -0.332525522819E+03   -0.70753E-06   -0.14987E-05   200   0.914E-03    0.345E-03
DAV:   4    -0.332525522588E+03    0.23064E-06   -0.37560E-06   220   0.443E-03    0.130E-03
DAV:   5    -0.332525522609E+03   -0.20390E-07   -0.13900E-06   220   0.238E-03    0.540E-04
DAV:   6    -0.332525522655E+03   -0.46806E-07   -0.34270E-07   220   0.121E-03
   16 T=    51. E= -.33249827E+03 F= -.33252552E+03 E0= -.33244181E+03  EK= 0.41250E+00 SP= -.70E+01 SK= 0.67E+01
 bond charge predicted
 prediction of wavefunctions
       N       E                     dE             d eps       ncg     rms          rms(c)
DAV:   1    -0.332489086267E+03    0.36436E-01   -0.20168E-02   400   0.575E-01    0.132E-02
DAV:   2    -0.332489253681E+03   -0.16741E-03   -0.17364E-03   360   0.879E-02    0.740E-03
DAV:   3    -0.332489254872E+03   -0.11911E-05   -0.24371E-05   220   0.117E-02    0.486E-03
DAV:   4    -0.332489254548E+03    0.32428E-06   -0.63665E-06   220   0.583E-03    0.164E-03
DAV:   5    -0.332489254643E+03   -0.94800E-07   -0.22279E-06   220   0.303E-03    0.687E-04
DAV:   6    -0.332489254719E+03   -0.76631E-07   -0.57814E-07   220   0.158E-03
   17 T=    70. E= -.33249324E+03 F= -.33248925E+03 E0= -.33240251E+03  EK= 0.55988E+00 SP= -.80E+01 SK= 0.74E+01
 bond charge predicted
 prediction of wavefunctions
       N       E                     dE             d eps       ncg     rms          rms(c)
DAV:   1    -0.332433814958E+03    0.55440E-01   -0.26838E-02   360   0.672E-01    0.185E-02
DAV:   2    -0.332434150063E+03   -0.33511E-03   -0.34473E-03   360   0.124E-01    0.108E-02
DAV:   3    -0.332434153137E+03   -0.30746E-05   -0.55618E-05   280   0.161E-02    0.718E-03
DAV:   4    -0.332434152418E+03    0.71931E-06   -0.97337E-06   220   0.765E-03    0.247E-03
DAV:   5    -0.332434152596E+03   -0.17786E-06   -0.32738E-06   220   0.397E-03    0.106E-03
DAV:   6    -0.332434152631E+03   -0.34995E-07   -0.68376E-07   220   0.213E-03
   18 T=    96. E= -.33249014E+03 F= -.33243415E+03 E0= -.33234292E+03  EK= 0.76791E+00 SP= -.89E+01 SK= 0.81E+01
 bond charge predicted
 prediction of wavefunctions
       N       E                     dE             d eps       ncg     rms          rms(c)
DAV:   1    -0.332354024493E+03    0.80128E-01   -0.34563E-02   360   0.784E-01    0.225E-02
DAV:   2    -0.332354571821E+03   -0.54733E-03   -0.55267E-03   360   0.159E-01    0.140E-02
DAV:   3    -0.332354574544E+03   -0.27232E-05   -0.72885E-05   260   0.200E-02    0.958E-03
DAV:   4    -0.332354572855E+03    0.16893E-05   -0.19712E-05   220   0.104E-02    0.307E-03
DAV:   5    -0.332354573393E+03   -0.53754E-06   -0.65588E-06   220   0.555E-03    0.153E-03
DAV:   6    -0.332354573469E+03   -0.76424E-07   -0.13144E-06   220   0.283E-03
   19 T=   133. E= -.33249004E+03 F= -.33235457E+03 E0= -.33225721E+03  EK= 0.10669E+01 SP= -.99E+01 SK= 0.87E+01
 bond charge predicted
 prediction of wavefunctions
       N       E                     dE             d eps       ncg     rms          rms(c)
DAV:   1    -0.332245093575E+03    0.10948E+00   -0.11095E-01   420   0.923E-01    0.283E-02
DAV:   2    -0.332245917645E+03   -0.82407E-03   -0.81099E-03   360   0.210E-01    0.179E-02
DAV:   3    -0.332245922019E+03   -0.43742E-05   -0.10953E-04   280   0.241E-02    0.128E-02
DAV:   4    -0.332245920723E+03    0.12967E-05   -0.17164E-05   220   0.948E-03    0.722E-03
DAV:   5    -0.332245921340E+03   -0.61739E-06   -0.12233E-05   220   0.709E-03    0.209E-03
DAV:   6    -0.332245921574E+03   -0.23408E-06   -0.29263E-06   220   0.398E-03
   20 T=   188. E= -.33249406E+03 F= -.33224592E+03 E0= -.33214135E+03  EK= 0.15056E+01 SP= -.11E+02 SK= 0.92E+01
 bond charge predicted
 prediction of wavefunctions
       N       E                     dE             d eps       ncg     rms          rms(c)
DAV:   1    -0.332103934190E+03    0.14199E+00   -0.17581E-01   460   0.113E+00    0.514E-02
DAV:   2    -0.332105736343E+03   -0.18022E-02   -0.17937E-02   360   0.316E-01    0.245E-02
DAV:   3    -0.332105749594E+03   -0.13251E-04   -0.26852E-04   320   0.339E-02    0.158E-02
DAV:   4    -0.332105754208E+03   -0.46137E-05   -0.26709E-05   220   0.117E-02    0.930E-03
DAV:   5    -0.332105757616E+03   -0.34079E-05   -0.12405E-05   220   0.813E-03    0.211E-03
DAV:   6    -0.332105757862E+03   -0.24578E-06   -0.32329E-06   220   0.407E-03
   21 T=   270. E= -.33250335E+03 F= -.33210576E+03 E0= -.33199520E+03  EK= 0.21600E+01 SP= -.12E+02 SK= 0.94E+01
Information: wavefunction orthogonal band  160  0.8626
 bond charge predicted
 prediction of wavefunctions
       N       E                     dE             d eps       ncg     rms          rms(c)
DAV:   1    -0.331929581072E+03    0.17618E+00   -0.35064E-01   440   0.145E+00    0.962E-02
DAV:   2    -0.331933690797E+03   -0.41097E-02   -0.41399E-02   360   0.477E-01    0.389E-02
DAV:   3    -0.331933715477E+03   -0.24680E-04   -0.60988E-04   380   0.540E-02    0.243E-02
DAV:   4    -0.331933727990E+03   -0.12513E-04   -0.52612E-05   220   0.149E-02    0.126E-02
DAV:   5    -0.331933734396E+03   -0.64057E-05   -0.17574E-05   220   0.979E-03    0.306E-03
DAV:   6    -0.331933734795E+03   -0.39924E-06   -0.37834E-06   220   0.492E-03
   22 T=   392. E= -.33251923E+03 F= -.33193373E+03 E0= -.33182388E+03  EK= 0.31385E+01 SP= -.13E+02 SK= 0.93E+01
 bond charge predicted
 prediction of wavefunctions
       N       E                     dE             d eps       ncg     rms          rms(c)
DAV:   1    -0.331715831579E+03    0.21790E+00   -0.57021E-01   440   0.196E+00    0.174E-01
DAV:   2    -0.331725600967E+03   -0.97694E-02   -0.10235E-01   360   0.717E-01    0.600E-02
DAV:   3    -0.331725710867E+03   -0.10990E-03   -0.18524E-03   400   0.909E-02    0.387E-02
DAV:   4    -0.331725747567E+03   -0.36700E-04   -0.19548E-04   300   0.260E-02    0.181E-02
DAV:   5    -0.331725756597E+03   -0.90295E-05   -0.36431E-05   220   0.117E-02    0.487E-03
DAV:   6    -0.331725757510E+03   -0.91369E-06   -0.51326E-06   220   0.590E-03
   23 T=   570. E= -.33254485E+03 F= -.33172576E+03 E0= -.33162920E+03  EK= 0.45659E+01 SP= -.14E+02 SK= 0.87E+01
 bond charge predicted
 prediction of wavefunctions
       N       E                     dE             d eps       ncg     rms          rms(c)
DAV:   1    -0.331422211506E+03    0.30355E+00   -0.10685E+00   400   0.278E+00    0.273E-01
DAV:   2    -0.331445445078E+03   -0.23234E-01   -0.24187E-01   360   0.104E+00    0.990E-02
DAV:   3    -0.331445740950E+03   -0.29587E-03   -0.53759E-03   440   0.151E-01    0.612E-02
DAV:   4    -0.331445830063E+03   -0.89113E-04   -0.59015E-04   380   0.462E-02    0.288E-02
DAV:   5    -0.331445850794E+03   -0.20731E-04   -0.65958E-05   220   0.166E-02    0.856E-03
DAV:   6    -0.331445856073E+03   -0.52790E-05   -0.14706E-05   220   0.901E-03
   24 T=   811. E= -.33258601E+03 F= -.33144586E+03 E0= -.33136537E+03  EK= 0.64999E+01 SP= -.15E+02 SK= 0.74E+01
Information: wavefunction orthogonal band  160  0.8354
 bond charge predicted
 prediction of wavefunctions
       N       E                     dE             d eps       ncg     rms          rms(c)
DAV:   1    -0.330922517951E+03    0.52333E+00   -0.20725E+00   380   0.402E+00    0.332E-01
DAV:   2    -0.330973631250E+03   -0.51113E-01   -0.49340E-01   360   0.143E+00    0.134E-01
DAV:   3    -0.330974522468E+03   -0.89122E-03   -0.75918E-03   460   0.189E-01    0.877E-02
DAV:   4    -0.330974921428E+03   -0.39896E-03   -0.10074E-03   360   0.640E-02    0.322E-02
DAV:   5    -0.330974985452E+03   -0.64024E-04   -0.16238E-04   240   0.246E-02    0.131E-02
DAV:   6    -0.330975018426E+03   -0.32974E-04   -0.46841E-05   240   0.140E-02
   25 T=  1093. E= -.33264308E+03 F= -.33097502E+03 E0= -.33089784E+03  EK= 0.87563E+01 SP= -.16E+02 SK= 0.55E+01
Information: wavefunction orthogonal band  159  0.8414
 bond charge predicted
 prediction of wavefunctions
       N       E                     dE             d eps       ncg     rms          rms(c)
DAV:   1    -0.330003089374E+03    0.97190E+00   -0.38053E+00   380   0.570E+00    0.445E-01
DAV:   2    -0.330097245943E+03   -0.94157E-01   -0.90101E-01   360   0.188E+00    0.200E-01
DAV:   3    -0.330099287186E+03   -0.20412E-02   -0.13689E-02   420   0.254E-01    0.133E-01
DAV:   4    -0.330100162575E+03   -0.87539E-03   -0.17211E-03   380   0.902E-02    0.420E-02
DAV:   5    -0.330100241706E+03   -0.79131E-04   -0.25084E-04   280   0.312E-02    0.163E-02
DAV:   6    -0.330100269290E+03   -0.27584E-04   -0.60576E-05   240   0.163E-02
   26 T=  1342. E= -.33270011E+03 F= -.33010027E+03 E0= -.33002314E+03  EK= 0.10753E+02 SP= -.17E+02 SK= 0.33E+01
Information: wavefunction orthogonal band  159  0.7858
Information: wavefunction orthogonal band  160  0.4163
 bond charge predicted
 prediction of wavefunctions
       N       E                     dE             d eps       ncg     rms          rms(c)
DAV:   1    -0.328445618268E+03    0.16546E+01   -0.82759E+00   340   0.823E+00    0.593E-01
DAV:   2    -0.328606351788E+03   -0.16073E+00   -0.15280E+00   380   0.236E+00    0.278E-01
DAV:   3    -0.328612033925E+03   -0.56821E-02   -0.29952E-02   460   0.348E-01    0.181E-01
DAV:   4    -0.328614593935E+03   -0.25600E-02   -0.29115E-03   400   0.133E-01    0.484E-02
DAV:   5    -0.328614747042E+03   -0.15311E-03   -0.33074E-04   360   0.386E-02    0.178E-02
DAV:   6    -0.328614758484E+03   -0.11441E-04   -0.72035E-05   260   0.170E-02
   27 T=  1456. E= -.33271684E+03 F= -.32861476E+03 E0= -.32853763E+03  EK= 0.11665E+02 SP= -.17E+02 SK= 0.14E+01
Information: wavefunction orthogonal band  157  0.6319
 bond charge predicted
 prediction of wavefunctions
       N       E                     dE             d eps       ncg     rms          rms(c)
DAV:   1    -0.326324552995E+03    0.22902E+01   -0.15489E+01   340   0.105E+01    0.684E-01
DAV:   2    -0.326519860310E+03   -0.19531E+00   -0.18613E+00   400   0.263E+00    0.356E-01
DAV:   3    -0.326529616364E+03   -0.97561E-02   -0.41775E-02   420   0.408E-01    0.221E-01
DAV:   4    -0.326534023080E+03   -0.44067E-02   -0.34663E-03   360   0.162E-01    0.473E-02
DAV:   5    -0.326534220057E+03   -0.19698E-03   -0.26314E-04   360   0.394E-02    0.148E-02
DAV:   6    -0.326534207901E+03    0.12155E-04   -0.59669E-05   260   0.154E-02
   28 T=  1374. E= -.33266308E+03 F= -.32653421E+03 E0= -.32645131E+03  EK= 0.11010E+02 SP= -.17E+02 SK= 0.26E+00
 bond charge predicted
 prediction of wavefunctions
       N       E                     dE             d eps       ncg     rms          rms(c)
DAV:   1    -0.324567232295E+03    0.19670E+01   -0.19753E+01   340   0.103E+01    0.210E+00
DAV:   2    -0.324529102869E+03    0.38129E-01   -0.25111E+00   360   0.305E+00    0.523E-01
DAV:   3    -0.324542014085E+03   -0.12911E-01   -0.16325E-01   400   0.850E-01    0.338E-01
DAV:   4    -0.324545570615E+03   -0.35565E-02   -0.18419E-02   420   0.291E-01    0.155E-01
DAV:   5    -0.324546013463E+03   -0.44285E-03   -0.31492E-03   380   0.116E-01    0.487E-02
DAV:   6    -0.324546113792E+03   -0.10033E-03   -0.37625E-04   340   0.442E-02    0.152E-02
DAV:   7    -0.324546102196E+03    0.11596E-04   -0.62977E-05   260   0.172E-02
   29 T=  1177. E= -.33258220E+03 F= -.32454610E+03 E0= -.32439230E+03  EK= 0.94327E+01 SP= -.17E+02 SK= 0.28E-02
 bond charge predicted
 prediction of wavefunctions
       N       E                     dE             d eps       ncg     rms          rms(c)
DAV:   1    -0.323241816929E+03    0.13043E+01   -0.66615E+00   340   0.704E+00    0.216E+00
DAV:   2    -0.323053467256E+03    0.18835E+00   -0.98447E-01   400   0.204E+00    0.693E-01
DAV:   3    -0.323055948510E+03   -0.24813E-02   -0.15459E-01   380   0.756E-01    0.372E-01
DAV:   4    -0.323054067371E+03    0.18811E-02   -0.16470E-02   360   0.255E-01    0.118E-01
DAV:   5    -0.323053768469E+03    0.29890E-03   -0.22662E-03   380   0.978E-02    0.546E-02
DAV:   6    -0.323053492895E+03    0.27557E-03   -0.80185E-04   340   0.485E-02    0.167E-02
DAV:   7    -0.323053458130E+03    0.34765E-04   -0.63777E-05   280   0.162E-02
   30 T=   945. E= -.33260831E+03 F= -.32305346E+03 E0= -.32297355E+03  EK= 0.75710E+01 SP= -.17E+02 SK= 0.24E+00
 bond charge predicted
 prediction of wavefunctions
       N       E                     dE             d eps       ncg     rms          rms(c)
DAV:   1    -0.321550323282E+03    0.15032E+01   -0.39329E+00   360   0.603E+00    0.553E-01
DAV:   2    -0.321596001456E+03   -0.45678E-01   -0.57606E-01   360   0.158E+00    0.272E-01
DAV:   3    -0.321597420054E+03   -0.14186E-02   -0.19869E-02   400   0.301E-01    0.156E-01
DAV:   4    -0.321597444311E+03   -0.24257E-04   -0.14864E-03   340   0.877E-02    0.519E-02
DAV:   5    -0.321597420566E+03    0.23745E-04   -0.27150E-04   340   0.335E-02    0.117E-02
DAV:   6    -0.321597395464E+03    0.25103E-04   -0.45217E-05   260   0.145E-02
   31 T=   692. E= -.33256668E+03 F= -.32159740E+03 E0= -.32152020E+03  EK= 0.55466E+01 SP= -.17E+02 SK= 0.62E+00
 bond charge predicted
 prediction of wavefunctions
       N       E                     dE             d eps       ncg     rms          rms(c)
DAV:   1    -0.320328419436E+03    0.12690E+01   -0.27124E+00   380   0.522E+00    0.108E+00
DAV:   2    -0.320313088813E+03    0.15331E-01   -0.75845E-01   380   0.180E+00    0.401E-01
DAV:   3    -0.320314078750E+03   -0.98994E-03   -0.49984E-02   380   0.459E-01    0.231E-01
DAV:   4    -0.320313357692E+03    0.72106E-03   -0.72332E-03   380   0.173E-01    0.847E-02
DAV:   5    -0.320313323725E+03    0.33967E-04   -0.17193E-03   380   0.830E-02    0.318E-02
DAV:   6    -0.320313316326E+03    0.73984E-05   -0.28292E-04   320   0.333E-02
   32 T=   463. E= -.33253883E+03 F= -.32031332E+03 E0= -.32022674E+03  EK= 0.37115E+01 SP= -.17E+02 SK= 0.89E+00
 bond charge predicted
 prediction of wavefunctions
       N       E                     dE             d eps       ncg     rms          rms(c)
DAV:   1    -0.319349249762E+03    0.96407E+00   -0.11305E+00   360   0.330E+00    0.298E-01
DAV:   2    -0.319368134627E+03   -0.18885E-01   -0.24342E-01   360   0.993E-01    0.121E-01
DAV:   3    -0.319368660614E+03   -0.52599E-03   -0.75814E-03   400   0.187E-01    0.795E-02
DAV:   4    -0.319368743322E+03   -0.82708E-04   -0.13171E-03   380   0.744E-02    0.297E-02
DAV:   5    -0.319368737241E+03    0.60812E-05   -0.22767E-04   280   0.306E-02    0.133E-02
DAV:   6    -0.319368725682E+03    0.11559E-04   -0.47385E-05   200   0.143E-02
   33 T=   293. E= -.33253487E+03 F= -.31936873E+03 E0= -.31927013E+03  EK= 0.23500E+01 SP= -.16E+02 SK= 0.97E+00
 bond charge predicted
 prediction of wavefunctions
       N       E                     dE             d eps       ncg     rms          rms(c)
DAV:   1    -0.318745263412E+03    0.62347E+00   -0.34277E-01   380   0.201E+00    0.401E-01
DAV:   2    -0.318745998953E+03   -0.73554E-03   -0.11399E-01   360   0.729E-01    0.122E-01
DAV:   3    -0.318745974967E+03    0.23986E-04   -0.89391E-03   340   0.208E-01    0.776E-02
DAV:   4    -0.318745917905E+03    0.57062E-04   -0.14719E-03   400   0.732E-02    0.330E-02
DAV:   5    -0.318745893004E+03    0.24901E-04   -0.21773E-04   300   0.322E-02    0.156E-02
DAV:   6    -0.318745884721E+03    0.82832E-05   -0.47959E-05   220   0.145E-02
   34 T=   182. E= -.33253770E+03 F= -.31874588E+03 E0= -.31864839E+03  EK= 0.14592E+01 SP= -.16E+02 SK= 0.90E+00
 bond charge predicted
 prediction of wavefunctions
       N       E                     dE             d eps       ncg     rms          rms(c)
DAV:   1    -0.318370096525E+03    0.37580E+00   -0.12419E-01   380   0.136E+00    0.110E-01
DAV:   2    -0.318373756560E+03   -0.36600E-02   -0.43353E-02   360   0.450E-01    0.508E-02
DAV:   3    -0.318373780782E+03   -0.24222E-04   -0.11242E-03   400   0.751E-02    0.322E-02
DAV:   4    -0.318373761025E+03    0.19757E-04   -0.13355E-04   240   0.236E-02    0.125E-02
DAV:   5    -0.318373759466E+03    0.15586E-05   -0.29570E-05   200   0.122E-02    0.436E-03
DAV:   6    -0.318373758184E+03    0.12823E-05   -0.74360E-06   160   0.637E-03
   35 T=   116. E= -.33253885E+03 F= -.31837376E+03 E0= -.31827848E+03  EK= 0.92969E+00 SP= -.16E+02 SK= 0.74E+00
 bond charge predicted
 prediction of wavefunctions
       N       E                     dE             d eps       ncg     rms          rms(c)
DAV:   1    -0.318218075908E+03    0.15568E+00   -0.49201E-02   360   0.108E+00    0.597E-02
DAV:   2    -0.318220426265E+03   -0.23504E-02   -0.24395E-02   360   0.340E-01    0.391E-02
DAV:   3    -0.318220412417E+03    0.13849E-04   -0.38421E-04   380   0.474E-02    0.273E-02
DAV:   4    -0.318220390088E+03    0.22329E-04   -0.94360E-05   160   0.194E-02    0.101E-02
DAV:   5    -0.318220391216E+03   -0.11285E-05   -0.28965E-05   160   0.109E-02    0.563E-03
DAV:   6    -0.318220390448E+03    0.76778E-06   -0.68459E-06   160   0.619E-03
   36 T=    85. E= -.33253660E+03 F= -.31822039E+03 E0= -.31812389E+03  EK= 0.68426E+00 SP= -.16E+02 SK= 0.56E+00
 bond charge predicted
 prediction of wavefunctions
       N       E                     dE             d eps       ncg     rms          rms(c)
DAV:   1    -0.318301731648E+03   -0.81340E-01   -0.21681E-02   400   0.100E+00    0.474E-02
DAV:   2    -0.318303209893E+03   -0.14782E-02   -0.15554E-02   360   0.261E-01    0.369E-02
DAV:   3    -0.318303175578E+03    0.34315E-04   -0.24208E-04   260   0.401E-02    0.256E-02
DAV:   4    -0.318303151243E+03    0.24335E-04   -0.21333E-04   280   0.288E-02    0.740E-03
DAV:   5    -0.318303152798E+03   -0.15542E-05   -0.42078E-05   160   0.140E-02    0.579E-03
DAV:   6    -0.318303153084E+03   -0.28624E-06   -0.98532E-06   160   0.674E-03
   37 T=    88. E= -.33253203E+03 F= -.31830315E+03 E0= -.31820389E+03  EK= 0.70277E+00 SP= -.15E+02 SK= 0.39E+00
 bond charge predicted
 prediction of wavefunctions
       N       E                     dE             d eps       ncg     rms          rms(c)
DAV:   1    -0.318668503158E+03   -0.36535E+00   -0.83639E-02   400   0.110E+00    0.440E-02
DAV:   2    -0.318669667078E+03   -0.11639E-02   -0.12486E-02   320   0.217E-01    0.337E-02
DAV:   3    -0.318669640382E+03    0.26696E-04   -0.20309E-04   300   0.372E-02    0.249E-02
DAV:   4    -0.318669610107E+03    0.30275E-04   -0.15769E-04   240   0.258E-02    0.805E-03
DAV:   5    -0.318669612663E+03   -0.25567E-05   -0.37223E-05   160   0.127E-02    0.503E-03
DAV:   6    -0.318669612873E+03   -0.20996E-06   -0.70199E-06   160   0.602E-03
   38 T=   125. E= -.33252856E+03 F= -.31866961E+03 E0= -.31857364E+03  EK= 0.10039E+01 SP= -.15E+02 SK= 0.26E+00
 bond charge predicted
 prediction of wavefunctions
       N       E                     dE             d eps       ncg     rms          rms(c)
DAV:   1    -0.319351908372E+03   -0.68230E+00   -0.51389E-02   400   0.136E+00    0.165E-01
DAV:   2    -0.319352401564E+03   -0.49319E-03   -0.28378E-02   360   0.365E-01    0.635E-02
DAV:   3    -0.319352507912E+03   -0.10635E-03   -0.20245E-03   420   0.906E-02    0.409E-02
DAV:   4    -0.319352481788E+03    0.26124E-04   -0.13863E-04   220   0.270E-02    0.167E-02
DAV:   5    -0.319352483019E+03   -0.12311E-05   -0.59634E-05   180   0.161E-02    0.450E-03
DAV:   6    -0.319352482768E+03    0.25086E-06   -0.10877E-05   160   0.903E-03
   39 T=   199. E= -.33253478E+03 F= -.31935248E+03 E0= -.31927141E+03  EK= 0.15951E+01 SP= -.15E+02 SK= 0.19E+00
 bond charge predicted
 prediction of wavefunctions
       N       E                     dE             d eps       ncg     rms          rms(c)
DAV:   1    -0.320280844307E+03   -0.92836E+00   -0.93665E-02   420   0.186E+00    0.212E-01
DAV:   2    -0.320282538703E+03   -0.16944E-02   -0.58244E-02   360   0.538E-01    0.957E-02
DAV:   3    -0.320282621067E+03   -0.82364E-04   -0.41615E-03   420   0.127E-01    0.587E-02
DAV:   4    -0.320282594244E+03    0.26823E-04   -0.30437E-04   280   0.376E-02    0.296E-02
DAV:   5    -0.320282591715E+03    0.25286E-05   -0.14149E-04   240   0.234E-02    0.693E-03
DAV:   6    -0.320282590764E+03    0.95129E-06   -0.20319E-05   220   0.121E-02
   40 T=   299. E= -.33254908E+03 F= -.32028259E+03 E0= -.32020333E+03  EK= 0.23951E+01 SP= -.15E+02 SK= 0.16E+00
 bond charge predicted
 prediction of wavefunctions
       N       E                     dE             d eps       ncg     rms          rms(c)
DAV:   1    -0.321304739041E+03   -0.10221E+01   -0.18414E-01   400   0.253E+00    0.265E-01
DAV:   2    -0.321308152951E+03   -0.34139E-02   -0.10803E-01   360   0.749E-01    0.118E-01
DAV:   3    -0.321308428444E+03   -0.27549E-03   -0.74354E-03   420   0.168E-01    0.654E-02
DAV:   4    -0.321308362307E+03    0.66137E-04   -0.51335E-04   380   0.497E-02    0.303E-02
DAV:   5    -0.321308370128E+03   -0.78205E-05   -0.17466E-04   260   0.254E-02    0.824E-03
DAV:   6    -0.321308369686E+03    0.44190E-06   -0.25615E-05   220   0.121E-02
   41 T=   404. E= -.33256407E+03 F= -.32130837E+03 E0= -.32121781E+03  EK= 0.32407E+01 SP= -.15E+02 SK= 0.19E+00
 bond charge predicted
 prediction of wavefunctions
       N       E                     dE             d eps       ncg     rms          rms(c)
DAV:   1    -0.322290272322E+03   -0.98190E+00   -0.27750E-01   400   0.271E+00    0.275E-01
DAV:   2    -0.322298190871E+03   -0.79185E-02   -0.13791E-01   360   0.877E-01    0.931E-02
DAV:   3    -0.322298416369E+03   -0.22550E-03   -0.62919E-03   400   0.176E-01    0.609E-02
DAV:   4    -0.322298358980E+03    0.57388E-04   -0.98116E-04   380   0.653E-02    0.243E-02
DAV:   5    -0.322298360581E+03   -0.16006E-05   -0.23890E-04   280   0.319E-02    0.105E-02
DAV:   6    -0.322298361784E+03   -0.12033E-05   -0.37424E-05   180   0.123E-02
   42 T=   497. E= -.33257157E+03 F= -.32229836E+03 E0= -.32217354E+03  EK= 0.39792E+01 SP= -.15E+02 SK= 0.27E+00
 bond charge predicted
 prediction of wavefunctions
       N       E                     dE             d eps       ncg     rms          rms(c)
DAV:   1    -0.323272757813E+03   -0.97440E+00   -0.10951E+00   400   0.282E+00    0.839E-01
DAV:   2    -0.323258383484E+03    0.14374E-01   -0.49844E-01   400   0.116E+00    0.283E-01
DAV:   3    -0.323254586979E+03    0.37965E-02   -0.24613E-02   360   0.380E-01    0.113E-01
DAV:   4    -0.323254723104E+03   -0.13612E-03   -0.45462E-03   420   0.122E-01    0.606E-02
DAV:   5    -0.323254677109E+03    0.45995E-04   -0.53564E-04   360   0.492E-02    0.256E-02
DAV:   6    -0.323254673857E+03    0.32519E-05   -0.10362E-04   220   0.231E-02
   43 T=   572. E= -.33255991E+03 F= -.32325467E+03 E0= -.32308284E+03  EK= 0.45873E+01 SP= -.14E+02 SK= 0.43E+00
 bond charge predicted
 prediction of wavefunctions
       N       E                     dE             d eps       ncg     rms          rms(c)
DAV:   1    -0.324351970576E+03   -0.10973E+01   -0.10502E+00   400   0.272E+00    0.592E-01
DAV:   2    -0.324350234447E+03    0.17361E-02   -0.20718E-01   380   0.108E+00    0.211E-01
DAV:   3    -0.324350744351E+03   -0.50990E-03   -0.22881E-02   400   0.316E-01    0.123E-01
DAV:   4    -0.324350755607E+03   -0.11255E-04   -0.17580E-03   400   0.780E-02    0.568E-02
DAV:   5    -0.324350762782E+03   -0.71752E-05   -0.16863E-04   260   0.302E-02    0.159E-02
DAV:   6    -0.324350773782E+03   -0.11000E-04   -0.40200E-05   200   0.146E-02
   44 T=   643. E= -.33256679E+03 F= -.32435077E+03 E0= -.32422694E+03  EK= 0.51559E+01 SP= -.14E+02 SK= 0.70E+00
 bond charge predicted
 prediction of wavefunctions
       N       E                     dE             d eps       ncg     rms          rms(c)
DAV:   1    -0.325592664134E+03   -0.12419E+01   -0.79432E-01   380   0.334E+00    0.117E+00
DAV:   2    -0.325521195870E+03    0.71468E-01   -0.40876E-01   380   0.138E+00    0.473E-01
DAV:   3    -0.325517685853E+03    0.35100E-02   -0.82935E-02   420   0.531E-01    0.216E-01
DAV:   4    -0.325517597593E+03    0.88260E-04   -0.57607E-03   360   0.154E-01    0.102E-01
DAV:   5    -0.325517565573E+03    0.32021E-04   -0.12999E-03   380   0.665E-02    0.278E-02
DAV:   6    -0.325517553897E+03    0.11676E-04   -0.11417E-04   280   0.266E-02
   45 T=   692. E= -.33261829E+03 F= -.32551755E+03 E0= -.32544038E+03  EK= 0.55464E+01 SP= -.14E+02 SK= 0.11E+01
 bond charge predicted
 prediction of wavefunctions
       N       E                     dE             d eps       ncg     rms          rms(c)
DAV:   1    -0.326403978223E+03   -0.88641E+00   -0.98966E-01   380   0.473E+00    0.621E-01
DAV:   2    -0.326420383100E+03   -0.16405E-01   -0.51958E-01   320   0.176E+00    0.306E-01
DAV:   3    -0.326421234172E+03   -0.85107E-03   -0.52888E-02   440   0.420E-01    0.156E-01
DAV:   4    -0.326421189864E+03    0.44308E-04   -0.62110E-03   400   0.159E-01    0.951E-02
DAV:   5    -0.326421207538E+03   -0.17674E-04   -0.87310E-04   360   0.582E-02    0.157E-02
DAV:   6    -0.326421199719E+03    0.78191E-05   -0.46953E-05   240   0.179E-02
   46 T=   689. E= -.33261850E+03 F= -.32642120E+03 E0= -.32634407E+03  EK= 0.55231E+01 SP= -.13E+02 SK= 0.16E+01
 bond charge predicted
 prediction of wavefunctions
       N       E                     dE             d eps       ncg     rms          rms(c)
DAV:   1    -0.327079479232E+03   -0.65827E+00   -0.12382E+00   380   0.463E+00    0.395E-01
DAV:   2    -0.327116736177E+03   -0.37257E-01   -0.45166E-01   320   0.158E+00    0.199E-01
DAV:   3    -0.327117260085E+03   -0.52391E-03   -0.12522E-02   460   0.216E-01    0.109E-01
DAV:   4    -0.327117272469E+03   -0.12385E-04   -0.75747E-04   360   0.579E-02    0.538E-02
DAV:   5    -0.327117303793E+03   -0.31324E-04   -0.23073E-04   320   0.318E-02    0.108E-02
DAV:   6    -0.327117297529E+03    0.62639E-05   -0.31634E-05   260   0.134E-02
   47 T=   645. E= -.33260736E+03 F= -.32711730E+03 E0= -.32704017E+03  EK= 0.51663E+01 SP= -.13E+02 SK= 0.22E+01
 bond charge predicted
 prediction of wavefunctions
       N       E                     dE             d eps       ncg     rms          rms(c)
DAV:   1    -0.327734292052E+03   -0.61699E+00   -0.11686E+00   380   0.421E+00    0.262E-01
DAV:   2    -0.327769411638E+03   -0.35120E-01   -0.34701E-01   360   0.135E+00    0.148E-01
DAV:   3    -0.327769782796E+03   -0.37116E-03   -0.38837E-03   440   0.142E-01    0.979E-02
DAV:   4    -0.327769924811E+03   -0.14202E-03   -0.69576E-04   360   0.540E-02    0.236E-02
DAV:   5    -0.327769942748E+03   -0.17937E-04   -0.10470E-04   220   0.201E-02    0.110E-02
DAV:   6    -0.327769943608E+03   -0.86062E-06   -0.22706E-05   220   0.103E-02
   48 T=   587. E= -.33259881E+03 F= -.32776994E+03 E0= -.32769281E+03  EK= 0.47047E+01 SP= -.12E+02 SK= 0.28E+01
 bond charge predicted
 prediction of wavefunctions
       N       E                     dE             d eps       ncg     rms          rms(c)
DAV:   1    -0.328441550138E+03   -0.67161E+00   -0.74890E-01   380   0.350E+00    0.207E-01
DAV:   2    -0.328466612658E+03   -0.25063E-01   -0.24621E-01   360   0.115E+00    0.127E-01
DAV:   3    -0.328466817211E+03   -0.20455E-03   -0.25815E-03   440   0.119E-01    0.872E-02
DAV:   4    -0.328466908378E+03   -0.91167E-04   -0.66385E-04   360   0.511E-02    0.205E-02
DAV:   5    -0.328466920930E+03   -0.12553E-04   -0.11003E-04   240   0.209E-02    0.112E-02
DAV:   6    -0.328466923305E+03   -0.23745E-05   -0.26878E-05   220   0.106E-02
   49 T=   533. E= -.33259786E+03 F= -.32846692E+03 E0= -.32838913E+03  EK= 0.42733E+01 SP= -.12E+02 SK= 0.33E+01
 bond charge predicted
 prediction of wavefunctions
       N       E                     dE             d eps       ncg     rms          rms(c)
DAV:   1    -0.329164696163E+03   -0.69778E+00   -0.41936E-01   380   0.282E+00    0.155E-01
DAV:   2    -0.329181721996E+03   -0.17026E-01   -0.16807E-01   320   0.957E-01    0.108E-01
DAV:   3    -0.329181825556E+03   -0.10356E-03   -0.18583E-03   460   0.100E-01    0.770E-02
DAV:   4    -0.329181866870E+03   -0.41314E-04   -0.58081E-04   320   0.479E-02    0.211E-02
DAV:   5    -0.329181880853E+03   -0.13983E-04   -0.11253E-04   240   0.217E-02    0.110E-02
DAV:   6    -0.329181880390E+03    0.46305E-06   -0.29658E-05   180   0.117E-02
   50 T=   484. E= -.33259995E+03 F= -.32918188E+03 E0= -.32909923E+03  EK= 0.38802E+01 SP= -.11E+02 SK= 0.38E+01
 bond charge predicted
 prediction of wavefunctions
       N       E                     dE             d eps       ncg     rms          rms(c)
DAV:   1    -0.329837990323E+03   -0.65611E+00   -0.23531E-01   400   0.234E+00    0.122E-01
DAV:   2    -0.329849880213E+03   -0.11890E-01   -0.11734E-01   360   0.809E-01    0.899E-02
DAV:   3    -0.329849913628E+03   -0.33415E-04   -0.12743E-03   420   0.858E-02    0.666E-02
DAV:   4    -0.329849914136E+03   -0.50795E-06   -0.37367E-04   320   0.397E-02    0.249E-02
DAV:   5    -0.329849935853E+03   -0.21717E-04   -0.10178E-04   240   0.203E-02    0.104E-02
DAV:   6    -0.329849937144E+03   -0.12910E-05   -0.16092E-05   220   0.103E-02
   51 T=   435. E= -.33260201E+03 F= -.32984994E+03 E0= -.32976059E+03  EK= 0.34898E+01 SP= -.10E+02 SK= 0.42E+01
 bond charge predicted
 prediction of wavefunctions
       N       E                     dE             d eps       ncg     rms          rms(c)
DAV:   1    -0.330415526991E+03   -0.56559E+00   -0.13520E-01   400   0.205E+00    0.119E-01
DAV:   2    -0.330424083198E+03   -0.85562E-02   -0.86574E-02   320   0.704E-01    0.742E-02
DAV:   3    -0.330424083192E+03    0.59918E-08   -0.10413E-03   400   0.775E-02    0.513E-02
DAV:   4    -0.330424081093E+03    0.20989E-05   -0.24283E-04   300   0.322E-02    0.216E-02
DAV:   5    -0.330424096535E+03   -0.15442E-04   -0.68517E-05   240   0.165E-02    0.814E-03
DAV:   6    -0.330424098674E+03   -0.21390E-05   -0.98801E-06   220   0.769E-03
   52 T=   385. E= -.33260373E+03 F= -.33042410E+03 E0= -.33033070E+03  EK= 0.30838E+01 SP= -.97E+01 SK= 0.44E+01
Information: wavefunction orthogonal band  156  0.0106
 bond charge predicted
 prediction of wavefunctions
       N       E                     dE             d eps       ncg     rms          rms(c)
DAV:   1    -0.330874348687E+03   -0.45025E+00   -0.54727E-01   380   0.187E+00    0.948E-02
DAV:   2    -0.330882381578E+03   -0.80329E-02   -0.80470E-02   340   0.623E-01    0.592E-02
DAV:   3    -0.330882433292E+03   -0.51714E-04   -0.12130E-03   440   0.759E-02    0.429E-02
DAV:   4    -0.330882419673E+03    0.13619E-04   -0.15291E-04   240   0.267E-02    0.189E-02
DAV:   5    -0.330882432492E+03   -0.12818E-04   -0.81357E-05   220   0.178E-02    0.624E-03
DAV:   6    -0.330882432825E+03   -0.33311E-06   -0.14752E-05   160   0.983E-03
   53 T=   333. E= -.33260626E+03 F= -.33088243E+03 E0= -.33078720E+03  EK= 0.26653E+01 SP= -.90E+01 SK= 0.46E+01
 bond charge predicted
 prediction of wavefunctions
       N       E                     dE             d eps       ncg     rms          rms(c)
DAV:   1    -0.331210951775E+03   -0.32852E+00   -0.28639E-01   460   0.172E+00    0.732E-02
DAV:   2    -0.331216859203E+03   -0.59074E-02   -0.59537E-02   340   0.522E-01    0.518E-02
DAV:   3    -0.331216877984E+03   -0.18780E-04   -0.10237E-03   420   0.677E-02    0.385E-02
DAV:   4    -0.331216844445E+03    0.33538E-04   -0.13362E-04   200   0.251E-02    0.184E-02
DAV:   5    -0.331216853154E+03   -0.87091E-05   -0.10711E-04   220   0.195E-02    0.617E-03
DAV:   6    -0.331216853832E+03   -0.67719E-06   -0.21939E-05   220   0.115E-02
   54 T=   280. E= -.33260989E+03 F= -.33121685E+03 E0= -.33112033E+03  EK= 0.22449E+01 SP= -.82E+01 SK= 0.46E+01
 bond charge predicted
 prediction of wavefunctions
       N       E                     dE             d eps       ncg     rms          rms(c)
DAV:   1    -0.331429029555E+03   -0.21218E+00   -0.16253E-01   380   0.152E+00    0.567E-02
DAV:   2    -0.331431991076E+03   -0.29615E-02   -0.30650E-02   360   0.390E-01    0.500E-02
DAV:   3    -0.331431952151E+03    0.38925E-04   -0.54960E-04   380   0.563E-02    0.377E-02
DAV:   4    -0.331431891948E+03    0.60203E-04   -0.15337E-04   240   0.262E-02    0.173E-02
DAV:   5    -0.331431897791E+03   -0.58437E-05   -0.14278E-04   220   0.212E-02    0.677E-03
DAV:   6    -0.331431897580E+03    0.21193E-06   -0.34458E-05   220   0.138E-02
   55 T=   229. E= -.33261402E+03 F= -.33143190E+03 E0= -.33133331E+03  EK= 0.18371E+01 SP= -.75E+01 SK= 0.45E+01
 bond charge predicted
 prediction of wavefunctions
       N       E                     dE             d eps       ncg     rms          rms(c)
DAV:   1    -0.331547632080E+03   -0.11573E+00   -0.15626E-01   420   0.136E+00    0.473E-02
DAV:   2    -0.331549996098E+03   -0.23640E-02   -0.24510E-02   320   0.325E-01    0.511E-02
DAV:   3    -0.331549940237E+03    0.55861E-04   -0.42565E-04   380   0.505E-02    0.396E-02
DAV:   4    -0.331549851645E+03    0.88593E-04   -0.26032E-04   300   0.308E-02    0.148E-02
DAV:   5    -0.331549855351E+03   -0.37066E-05   -0.97743E-05   220   0.181E-02    0.658E-03
DAV:   6    -0.331549856783E+03   -0.14319E-05   -0.14542E-05   220   0.935E-03
   56 T=   183. E= -.33261799E+03 F= -.33154986E+03 E0= -.33144792E+03  EK= 0.14626E+01 SP= -.68E+01 SK= 0.42E+01
 bond charge predicted
 prediction of wavefunctions
       N       E                     dE             d eps       ncg     rms          rms(c)
DAV:   1    -0.331606676247E+03   -0.56821E-01   -0.13776E-01   420   0.122E+00    0.448E-02
DAV:   2    -0.331608660925E+03   -0.19847E-02   -0.20798E-02   360   0.284E-01    0.483E-02
DAV:   3    -0.331608598642E+03    0.62284E-04   -0.35339E-04   340   0.463E-02    0.372E-02
DAV:   4    -0.331608510180E+03    0.88462E-04   -0.43761E-04   320   0.375E-02    0.928E-03
DAV:   5    -0.331608515978E+03   -0.57978E-05   -0.65552E-05   220   0.168E-02    0.681E-03
DAV:   6    -0.331608516766E+03   -0.78790E-06   -0.10929E-05   220   0.769E-03
   57 T=   143. E= -.33262166E+03 F= -.33160852E+03 E0= -.33150269E+03  EK= 0.11456E+01 SP= -.61E+01 SK= 0.39E+01
 bond charge predicted
 prediction of wavefunctions
       N       E                     dE             d eps       ncg     rms          rms(c)
DAV:   1    -0.331645980904E+03   -0.37465E-01   -0.11496E-01   420   0.110E+00    0.450E-02
DAV:   2    -0.331647394224E+03   -0.14133E-02   -0.15349E-02   360   0.240E-01    0.402E-02
DAV:   3    -0.331647343233E+03    0.50991E-04   -0.31441E-04   300   0.424E-02    0.294E-02
DAV:   4    -0.331647290822E+03    0.52411E-04   -0.27566E-04   300   0.306E-02    0.860E-03
DAV:   5    -0.331647295924E+03   -0.51024E-05   -0.54405E-05   220   0.145E-02    0.551E-03
DAV:   6    -0.331647295610E+03    0.31397E-06   -0.83985E-06   220   0.710E-03
   58 T=   113. E= -.33262517E+03 F= -.33164730E+03 E0= -.33153840E+03  EK= 0.90250E+00 SP= -.54E+01 SK= 0.35E+01
 bond charge predicted
 prediction of wavefunctions
       N       E                     dE             d eps       ncg     rms          rms(c)
DAV:   1    -0.331691698277E+03   -0.44402E-01   -0.98858E-02   320   0.993E-01    0.405E-02
DAV:   2    -0.331692636645E+03   -0.93837E-03   -0.10444E-02   360   0.190E-01    0.354E-02
DAV:   3    -0.331692589940E+03    0.46705E-04   -0.27466E-04   260   0.376E-02    0.251E-02
DAV:   4    -0.331692551905E+03    0.38036E-04   -0.15330E-04   240   0.241E-02    0.103E-02
DAV:   5    -0.331692555285E+03   -0.33803E-05   -0.79208E-05   220   0.156E-02    0.503E-03
DAV:   6    -0.331692555547E+03   -0.26159E-06   -0.11834E-05   220   0.828E-03
   59 T=    92. E= -.33262865E+03 F= -.33169256E+03 E0= -.33158221E+03  EK= 0.73435E+00 SP= -.48E+01 SK= 0.31E+01
 bond charge predicted
 prediction of wavefunctions
       N       E                     dE             d eps       ncg     rms          rms(c)
DAV:   1    -0.331752130035E+03   -0.59575E-01   -0.81287E-02   420   0.922E-01    0.345E-02
DAV:   2    -0.331752779299E+03   -0.64926E-03   -0.74607E-03   360   0.158E-01    0.304E-02
DAV:   3    -0.331752742678E+03    0.36621E-04   -0.18912E-04   240   0.318E-02    0.212E-02
DAV:   4    -0.331752723610E+03    0.19068E-04   -0.59156E-05   220   0.161E-02    0.131E-02
DAV:   5    -0.331752718273E+03    0.53369E-05   -0.76864E-05   220   0.154E-02    0.387E-03
DAV:   6    -0.331752719803E+03   -0.15297E-05   -0.19181E-05   200   0.956E-03
   60 T=    78. E= -.33263174E+03 F= -.33175272E+03 E0= -.33164232E+03  EK= 0.62791E+00 SP= -.42E+01 SK= 0.27E+01
 bond charge predicted
 prediction of wavefunctions
       N       E                     dE             d eps       ncg     rms          rms(c)
DAV:   1    -0.331824289260E+03   -0.71571E-01   -0.64607E-02   380   0.879E-01    0.302E-02
DAV:   2    -0.331824880440E+03   -0.59118E-03   -0.66866E-03   360   0.147E-01    0.283E-02
DAV:   3    -0.331824856205E+03    0.24235E-04   -0.14221E-04   240   0.285E-02    0.200E-02
DAV:   4    -0.331824843466E+03    0.12739E-04   -0.32558E-05   220   0.133E-02    0.140E-02
DAV:   5    -0.331824835927E+03    0.75391E-05   -0.66147E-05   220   0.146E-02    0.340E-03
DAV:   6    -0.331824837404E+03   -0.14770E-05   -0.16984E-05   200   0.886E-03
   61 T=    70. E= -.33263396E+03 F= -.33182484E+03 E0= -.33171508E+03  EK= 0.56486E+00 SP= -.36E+01 SK= 0.23E+01
 bond charge predicted
 prediction of wavefunctions
       N       E                     dE             d eps       ncg     rms          rms(c)
DAV:   1    -0.331903344372E+03   -0.78508E-01   -0.55468E-02   360   0.840E-01    0.275E-02
DAV:   2    -0.331903969323E+03   -0.62495E-03   -0.67834E-03   340   0.145E-01    0.277E-02
DAV:   3    -0.331903948772E+03    0.20551E-04   -0.10762E-04   240   0.270E-02    0.208E-02
DAV:   4    -0.331903922956E+03    0.25816E-04   -0.10750E-04   200   0.208E-02    0.583E-03
DAV:   5    -0.331903926495E+03   -0.35386E-05   -0.39019E-05   180   0.115E-02    0.394E-03
DAV:   6    -0.331903926297E+03    0.19752E-06   -0.50054E-06   160   0.569E-03
   62 T=    66. E= -.33263518E+03 F= -.33190393E+03 E0= -.33179499E+03  EK= 0.53036E+00 SP= -.32E+01 SK= 0.19E+01
 bond charge predicted
 prediction of wavefunctions
       N       E                     dE             d eps       ncg     rms          rms(c)
DAV:   1    -0.331986612451E+03   -0.82686E-01   -0.48478E-02   360   0.805E-01    0.257E-02
DAV:   2    -0.331987235067E+03   -0.62262E-03   -0.66144E-03   360   0.139E-01    0.296E-02
DAV:   3    -0.331987209057E+03    0.26009E-04   -0.10215E-04   240   0.269E-02    0.230E-02
DAV:   4    -0.331987171016E+03    0.38042E-04   -0.13071E-04   220   0.227E-02    0.605E-03
DAV:   5    -0.331987174700E+03   -0.36848E-05   -0.49196E-05   220   0.126E-02    0.362E-03
DAV:   6    -0.331987175020E+03   -0.31966E-06   -0.64375E-06   220   0.614E-03
   63 T=    64. E= -.33263563E+03 F= -.33198718E+03 E0= -.33187922E+03  EK= 0.51533E+00 SP= -.27E+01 SK= 0.15E+01
 bond charge predicted
 prediction of wavefunctions
       N       E                     dE             d eps       ncg     rms          rms(c)
DAV:   1    -0.332072237964E+03   -0.85063E-01   -0.38292E-02   340   0.780E-01    0.241E-02
DAV:   2    -0.332072750239E+03   -0.51228E-03   -0.55484E-03   360   0.127E-01    0.263E-02
DAV:   3    -0.332072725861E+03    0.24378E-04   -0.10648E-04   220   0.256E-02    0.197E-02
DAV:   4    -0.332072711854E+03    0.14007E-04   -0.25419E-05   220   0.115E-02    0.143E-02
DAV:   5    -0.332072697992E+03    0.13862E-04   -0.55120E-05   220   0.137E-02    0.336E-03
DAV:   6    -0.332072699447E+03   -0.14545E-05   -0.17680E-05   160   0.830E-03
   64 T=    64. E= -.33263569E+03 F= -.33207270E+03 E0= -.33196615E+03  EK= 0.51402E+00 SP= -.23E+01 SK= 0.12E+01
 bond charge predicted
 prediction of wavefunctions
       N       E                     dE             d eps       ncg     rms          rms(c)
DAV:   1    -0.332156958344E+03   -0.84260E-01   -0.31679E-02   340   0.769E-01    0.244E-02
DAV:   2    -0.332157350727E+03   -0.39238E-03   -0.44904E-03   360   0.115E-01    0.224E-02
DAV:   3    -0.332157334853E+03    0.15874E-04   -0.10253E-04   260   0.242E-02    0.159E-02
DAV:   4    -0.332157330233E+03    0.46204E-05   -0.14149E-05   160   0.908E-03    0.133E-02
DAV:   5    -0.332157318985E+03    0.11248E-04   -0.40055E-05   160   0.122E-02    0.324E-03
DAV:   6    -0.332157320400E+03   -0.14155E-05   -0.18188E-05   160   0.755E-03
   65 T=    65. E= -.33263548E+03 F= -.33215732E+03 E0= -.33205279E+03  EK= 0.52130E+00 SP= -.19E+01 SK= 0.94E+00
 bond charge predicted
 prediction of wavefunctions
       N       E                     dE             d eps       ncg     rms          rms(c)
DAV:   1    -0.332236036447E+03   -0.78717E-01   -0.11802E-02   400   0.759E-01    0.235E-02
DAV:   2    -0.332236392877E+03   -0.35643E-03   -0.40360E-03   380   0.113E-01    0.193E-02
DAV:   3    -0.332236377983E+03    0.14894E-04   -0.75477E-05   260   0.219E-02    0.138E-02
DAV:   4    -0.332236370732E+03    0.72506E-05   -0.17075E-05   220   0.940E-03    0.969E-03
DAV:   5    -0.332236364602E+03    0.61302E-05   -0.28153E-05   220   0.998E-03    0.241E-03
DAV:   6    -0.332236365241E+03   -0.63869E-06   -0.84387E-06   220   0.602E-03
   66 T=    66. E= -.33263504E+03 F= -.33223637E+03 E0= -.33213450E+03  EK= 0.53190E+00 SP= -.16E+01 SK= 0.69E+00
 bond charge predicted
 prediction of wavefunctions
       N       E                     dE             d eps       ncg     rms          rms(c)
DAV:   1    -0.332304752405E+03   -0.68388E-01   -0.10671E-02   380   0.747E-01    0.196E-02
DAV:   2    -0.332305079935E+03   -0.32753E-03   -0.34622E-03   340   0.107E-01    0.209E-02
DAV:   3    -0.332305065994E+03    0.13941E-04   -0.53757E-05   260   0.195E-02    0.163E-02
DAV:   4    -0.332305047056E+03    0.18938E-04   -0.70814E-05   220   0.169E-02    0.532E-03
DAV:   5    -0.332305049248E+03   -0.21922E-05   -0.34923E-05   220   0.103E-02    0.370E-03
DAV:   6    -0.332305048739E+03    0.50874E-06   -0.52495E-06   220   0.585E-03
   67 T=    68. E= -.33263436E+03 F= -.33230505E+03 E0= -.33220651E+03  EK= 0.54133E+00 SP= -.14E+01 SK= 0.49E+00
 bond charge predicted
 prediction of wavefunctions
       N       E                     dE             d eps       ncg     rms          rms(c)
DAV:   1    -0.332359821842E+03   -0.54773E-01   -0.11183E-02   420   0.733E-01    0.210E-02
DAV:   2    -0.332360170835E+03   -0.34899E-03   -0.36694E-03   360   0.112E-01    0.210E-02
DAV:   3    -0.332360155282E+03    0.15553E-04   -0.51189E-05   220   0.190E-02    0.161E-02
DAV:   4    -0.332360136976E+03    0.18306E-04   -0.78712E-05   220   0.170E-02    0.531E-03
DAV:   5    -0.332360138966E+03   -0.19896E-05   -0.32178E-05   220   0.103E-02    0.322E-03
DAV:   6    -0.332360138890E+03    0.76247E-07   -0.45947E-06   200   0.544E-03
   68 T=    68. E= -.33263349E+03 F= -.33236014E+03 E0= -.33226550E+03  EK= 0.54696E+00 SP= -.11E+01 SK= 0.32E+00
Information: wavefunction orthogonal band  160  0.7460
 bond charge predicted
 prediction of wavefunctions
       N       E                     dE             d eps       ncg     rms          rms(c)
DAV:   1    -0.332400424391E+03   -0.40285E-01   -0.13273E-02   480   0.716E-01    0.226E-02
DAV:   2    -0.332400959410E+03   -0.53502E-03   -0.56340E-03   360   0.120E-01    0.190E-02
DAV:   3    -0.332400951822E+03    0.75874E-05   -0.10543E-04   300   0.230E-02    0.136E-02
DAV:   4    -0.332400943791E+03    0.80317E-05   -0.19863E-05   220   0.949E-03    0.824E-03
DAV:   5    -0.332400941117E+03    0.26732E-05   -0.23949E-05   220   0.882E-03    0.228E-03
DAV:   6    -0.332400941603E+03   -0.48616E-06   -0.64425E-06   220   0.556E-03
   69 T=    68. E= -.33263254E+03 F= -.33240094E+03 E0= -.33231061E+03  EK= 0.54856E+00 SP= -.97E+00 SK= 0.19E+00
Information: wavefunction orthogonal band  160  0.7606
 bond charge predicted
 prediction of wavefunctions
       N       E                     dE             d eps       ncg     rms          rms(c)
DAV:   1    -0.332428767548E+03   -0.27826E-01   -0.15514E-02   440   0.697E-01    0.238E-02
DAV:   2    -0.332429152213E+03   -0.38467E-03   -0.42295E-03   360   0.117E-01    0.186E-02
DAV:   3    -0.332429142896E+03    0.93168E-05   -0.75313E-05   240   0.213E-02    0.131E-02
DAV:   4    -0.332429135528E+03    0.73677E-05   -0.23374E-05   220   0.108E-02    0.702E-03
DAV:   5    -0.332429134632E+03    0.89601E-06   -0.20478E-05   220   0.824E-03    0.224E-03
DAV:   6    -0.332429134960E+03   -0.32794E-06   -0.49833E-06   220   0.497E-03
   70 T=    68. E= -.33263167E+03 F= -.33242913E+03 E0= -.33234310E+03  EK= 0.54804E+00 SP= -.84E+00 SK= 0.90E-01
 bond charge predicted
 prediction of wavefunctions
       N       E                     dE             d eps       ncg     rms          rms(c)
DAV:   1    -0.332446971062E+03   -0.17836E-01   -0.19424E-02   480   0.681E-01    0.227E-02
DAV:   2    -0.332447324577E+03   -0.35351E-03   -0.38828E-03   340   0.113E-01    0.192E-02
DAV:   3    -0.332447312342E+03    0.12235E-04   -0.67523E-05   220   0.210E-02    0.139E-02
DAV:   4    -0.332447301078E+03    0.11263E-04   -0.40880E-05   200   0.133E-02    0.546E-03
DAV:   5    -0.332447301876E+03   -0.79735E-06   -0.22788E-05   160   0.855E-03    0.241E-03
DAV:   6    -0.332447302092E+03   -0.21620E-06   -0.38372E-06   160   0.468E-03
   71 T=    68. E= -.33263112E+03 F= -.33244730E+03 E0= -.33236490E+03  EK= 0.54786E+00 SP= -.76E+00 SK= 0.28E-01
 bond charge predicted
 prediction of wavefunctions
       N       E                     dE             d eps       ncg     rms          rms(c)
DAV:   1    -0.332456269963E+03   -0.89681E-02   -0.23827E-02   380   0.679E-01    0.208E-02
DAV:   2    -0.332456564612E+03   -0.29465E-03   -0.31999E-03   320   0.105E-01    0.189E-02
DAV:   3    -0.332456551953E+03    0.12660E-04   -0.51675E-05   240   0.189E-02    0.142E-02
DAV:   4    -0.332456538001E+03    0.13952E-04   -0.51677E-05   220   0.144E-02    0.448E-03
DAV:   5    -0.332456539364E+03   -0.13631E-05   -0.21776E-05   160   0.842E-03    0.246E-03
DAV:   6    -0.332456539482E+03   -0.11825E-06   -0.29133E-06   160   0.425E-03
   72 T=    69. E= -.33263102E+03 F= -.33245654E+03 E0= -.33237656E+03  EK= 0.54899E+00 SP= -.72E+00 SK= 0.12E-02
 bond charge predicted
 prediction of wavefunctions
       N       E                     dE             d eps       ncg     rms          rms(c)
DAV:   1    -0.332454422570E+03    0.21168E-02   -0.31134E-02   380   0.698E-01    0.206E-02
DAV:   2    -0.332454706067E+03   -0.28350E-03   -0.30705E-03   360   0.101E-01    0.192E-02
DAV:   3    -0.332454692822E+03    0.13245E-04   -0.47393E-05   220   0.185E-02    0.146E-02
DAV:   4    -0.332454678108E+03    0.14715E-04   -0.67086E-05   220   0.159E-02    0.384E-03
DAV:   5    -0.332454679868E+03   -0.17599E-05   -0.20125E-05   220   0.856E-03    0.246E-03
DAV:   6    -0.332454679972E+03   -0.10451E-06   -0.25273E-06   220   0.400E-03
   73 T=    69. E= -.33263139E+03 F= -.33245468E+03 E0= -.33237601E+03  EK= 0.54927E+00 SP= -.74E+00 SK= 0.95E-02
 bond charge predicted
 prediction of wavefunctions
       N       E                     dE             d eps       ncg     rms          rms(c)
DAV:   1    -0.332436295301E+03    0.18385E-01   -0.36670E-02   380   0.723E-01    0.215E-02
DAV:   2    -0.332436563072E+03   -0.26777E-03   -0.29981E-03   360   0.996E-02    0.178E-02
DAV:   3    -0.332436551439E+03    0.11634E-04   -0.53258E-05   220   0.192E-02    0.130E-02
DAV:   4    -0.332436540995E+03    0.10444E-04   -0.56698E-05   220   0.147E-02    0.361E-03
DAV:   5    -0.332436542381E+03   -0.13857E-05   -0.15438E-05   220   0.785E-03    0.231E-03
DAV:   6    -0.332436542459E+03   -0.78399E-07   -0.20848E-06   220   0.361E-03
   74 T=    68. E= -.33263201E+03 F= -.33243654E+03 E0= -.33235855E+03  EK= 0.54366E+00 SP= -.79E+00 SK= 0.53E-01
 bond charge predicted
 prediction of wavefunctions
       N       E                     dE             d eps       ncg     rms          rms(c)
DAV:   1    -0.332396324602E+03    0.40218E-01   -0.41147E-02   460   0.739E-01    0.218E-02
DAV:   2    -0.332396642549E+03   -0.31795E-03   -0.35084E-03   360   0.105E-01    0.180E-02
DAV:   3    -0.332396630833E+03    0.11716E-04   -0.64380E-05   240   0.204E-02    0.131E-02
DAV:   4    -0.332396619969E+03    0.10864E-04   -0.56507E-05   220   0.147E-02    0.398E-03
DAV:   5    -0.332396621266E+03   -0.12965E-05   -0.16070E-05   220   0.796E-03    0.250E-03
DAV:   6    -0.332396621353E+03   -0.87609E-07   -0.22649E-06   220   0.372E-03
   75 T=    66. E= -.33263261E+03 F= -.33239662E+03 E0= -.33231899E+03  EK= 0.52643E+00 SP= -.89E+00 SK= 0.13E+00
Information: wavefunction orthogonal band  160  0.8073
 bond charge predicted
 prediction of wavefunctions
       N       E                     dE             d eps       ncg     rms          rms(c)
DAV:   1    -0.332332344176E+03    0.64277E-01   -0.45387E-02   480   0.739E-01    0.228E-02
DAV:   2    -0.332332842254E+03   -0.49808E-03   -0.53128E-03   380   0.114E-01    0.195E-02
DAV:   3    -0.332332827716E+03    0.14539E-04   -0.70039E-05   260   0.202E-02    0.143E-02
DAV:   4    -0.332332814536E+03    0.13179E-04   -0.75537E-05   220   0.161E-02    0.390E-03
DAV:   5    -0.332332816099E+03   -0.15626E-05   -0.17773E-05   220   0.884E-03    0.275E-03
DAV:   6    -0.332332816226E+03   -0.12673E-06   -0.28240E-06   220   0.392E-03
   76 T=    62. E= -.33263298E+03 F= -.33233282E+03 E0= -.33225537E+03  EK= 0.49452E+00 SP= -.10E+01 SK= 0.25E+00
Information: wavefunction orthogonal band  160  0.8681
 bond charge predicted
 prediction of wavefunctions
       N       E                     dE             d eps       ncg     rms          rms(c)
DAV:   1    -0.332248839360E+03    0.83977E-01   -0.46611E-02   460   0.716E-01    0.227E-02
DAV:   2    -0.332249196546E+03   -0.35719E-03   -0.39228E-03   360   0.114E-01    0.190E-02
DAV:   3    -0.332249183944E+03    0.12601E-04   -0.64523E-05   240   0.208E-02    0.139E-02
DAV:   4    -0.332249172117E+03    0.11828E-04   -0.65631E-05   220   0.157E-02    0.397E-03
DAV:   5    -0.332249173575E+03   -0.14585E-05   -0.16846E-05   220   0.848E-03    0.270E-03
DAV:   6    -0.332249173626E+03   -0.50652E-07   -0.26199E-06   220   0.390E-03
   77 T=    56. E= -.33263313E+03 F= -.33224917E+03 E0= -.33217183E+03  EK= 0.45002E+00 SP= -.12E+01 SK= 0.41E+00
 bond charge predicted
 prediction of wavefunctions
       N       E                     dE             d eps       ncg     rms          rms(c)
DAV:   1    -0.332155401140E+03    0.93772E-01   -0.45750E-02   460   0.672E-01    0.233E-02
DAV:   2    -0.332155745046E+03   -0.34391E-03   -0.37367E-03   320   0.112E-01    0.187E-02
DAV:   3    -0.332155733702E+03    0.11344E-04   -0.59036E-05   220   0.201E-02    0.137E-02
DAV:   4    -0.332155722932E+03    0.10769E-04   -0.62953E-05   220   0.153E-02    0.376E-03
DAV:   5    -0.332155724283E+03   -0.13510E-05   -0.15662E-05   220   0.825E-03    0.249E-03
DAV:   6    -0.332155724345E+03   -0.61641E-07   -0.24772E-06   220   0.377E-03
   78 T=    50. E= -.33263324E+03 F= -.33215572E+03 E0= -.33207842E+03  EK= 0.40058E+00 SP= -.15E+01 SK= 0.61E+00
 bond charge predicted
 prediction of wavefunctions
       N       E                     dE             d eps       ncg     rms          rms(c)
DAV:   1    -0.332065253967E+03    0.90470E-01   -0.41652E-02   320   0.626E-01    0.245E-02
DAV:   2    -0.332065565116E+03   -0.31115E-03   -0.34505E-03   360   0.105E-01    0.173E-02
DAV:   3    -0.332065558134E+03    0.69814E-05   -0.65238E-05   220   0.197E-02    0.125E-02
DAV:   4    -0.332065550739E+03    0.73957E-05   -0.25714E-05   220   0.110E-02    0.519E-03
DAV:   5    -0.332065550945E+03   -0.20616E-06   -0.11998E-05   200   0.648E-03    0.195E-03
DAV:   6    -0.332065550934E+03    0.10943E-07   -0.17479E-06   220   0.333E-03
   79 T=    45. E= -.33263352E+03 F= -.33206555E+03 E0= -.33198827E+03  EK= 0.35741E+00 SP= -.18E+01 SK= 0.85E+00
 bond charge predicted
 prediction of wavefunctions
       N       E                     dE             d eps       ncg     rms          rms(c)
DAV:   1    -0.331990216284E+03    0.75335E-01   -0.36668E-02   320   0.599E-01    0.236E-02
DAV:   2    -0.331990506042E+03   -0.28976E-03   -0.31936E-03   360   0.102E-01    0.161E-02
DAV:   3    -0.331990501209E+03    0.48335E-05   -0.57097E-05   240   0.182E-02    0.115E-02
DAV:   4    -0.331990495375E+03    0.58337E-05   -0.16116E-05   220   0.920E-03    0.526E-03
DAV:   5    -0.331990495133E+03    0.24158E-06   -0.10816E-05   220   0.606E-03    0.155E-03
DAV:   6    -0.331990495154E+03   -0.20736E-07   -0.20347E-06   220   0.334E-03
   80 T=    41. E= -.33263402E+03 F= -.33199050E+03 E0= -.33191321E+03  EK= 0.33210E+00 SP= -.21E+01 SK= 0.11E+01
 bond charge predicted
 prediction of wavefunctions
       N       E                     dE             d eps       ncg     rms          rms(c)
DAV:   1    -0.331937121196E+03    0.53374E-01   -0.30842E-02   280   0.603E-01    0.228E-02
DAV:   2    -0.331937429739E+03   -0.30854E-03   -0.33923E-03   360   0.102E-01    0.174E-02
DAV:   3    -0.331937422577E+03    0.71613E-05   -0.57802E-05   220   0.188E-02    0.126E-02
DAV:   4    -0.331937414887E+03    0.76906E-05   -0.20624E-05   220   0.101E-02    0.588E-03
DAV:   5    -0.331937414363E+03    0.52348E-06   -0.15061E-05   220   0.695E-03    0.170E-03
DAV:   6    -0.331937414459E+03   -0.95984E-07   -0.29789E-06   220   0.395E-03
   81 T=    42. E= -.33263453E+03 F= -.33193741E+03 E0= -.33186012E+03  EK= 0.33380E+00 SP= -.25E+01 SK= 0.15E+01
 bond charge predicted
 prediction of wavefunctions
       N       E                     dE             d eps       ncg     rms          rms(c)
DAV:   1    -0.331906151524E+03    0.31263E-01   -0.25155E-02   320   0.640E-01    0.225E-02
DAV:   2    -0.331906519208E+03   -0.36768E-03   -0.40106E-03   360   0.110E-01    0.202E-02
DAV:   3    -0.331906507792E+03    0.11416E-04   -0.70729E-05   240   0.207E-02    0.150E-02
DAV:   4    -0.331906495486E+03    0.12306E-04   -0.29243E-05   220   0.118E-02    0.716E-03
DAV:   5    -0.331906494458E+03    0.10279E-05   -0.22467E-05   220   0.833E-03    0.222E-03
DAV:   6    -0.331906494679E+03   -0.22115E-06   -0.43140E-06   220   0.489E-03
   82 T=    46. E= -.33263468E+03 F= -.33190649E+03 E0= -.33182918E+03  EK= 0.36782E+00 SP= -.30E+01 SK= 0.19E+01
 bond charge predicted
 prediction of wavefunctions
       N       E                     dE             d eps       ncg     rms          rms(c)
DAV:   1    -0.331891423014E+03    0.15071E-01   -0.20427E-02   400   0.709E-01    0.237E-02
DAV:   2    -0.331891885877E+03   -0.46286E-03   -0.50319E-03   360   0.122E-01    0.235E-02
DAV:   3    -0.331891869039E+03    0.16838E-04   -0.84053E-05   240   0.234E-02    0.177E-02
DAV:   4    -0.331891851161E+03    0.17878E-04   -0.44728E-05   220   0.142E-02    0.835E-03
DAV:   5    -0.331891849971E+03    0.11906E-05   -0.31291E-05   220   0.978E-03    0.272E-03
DAV:   6    -0.331891850328E+03   -0.35691E-06   -0.58019E-06   220   0.575E-03
   83 T=    54. E= -.33263403E+03 F= -.33189185E+03 E0= -.33181452E+03  EK= 0.43593E+00 SP= -.35E+01 SK= 0.23E+01
 bond charge predicted
 prediction of wavefunctions
       N       E                     dE             d eps       ncg     rms          rms(c)
DAV:   1    -0.331882663660E+03    0.91863E-02   -0.17884E-02   480   0.801E-01    0.241E-02
DAV:   2    -0.331883196406E+03   -0.53275E-03   -0.56516E-03   360   0.136E-01    0.264E-02
DAV:   3    -0.331883175937E+03    0.20468E-04   -0.78389E-05   220   0.237E-02    0.204E-02
DAV:   4    -0.331883150597E+03    0.25340E-04   -0.86073E-05   220   0.184E-02    0.715E-03
DAV:   5    -0.331883152174E+03   -0.15772E-05   -0.35335E-05   220   0.108E-02    0.336E-03
DAV:   6    -0.331883152438E+03   -0.26331E-06   -0.48808E-06   220   0.549E-03
   84 T=    67. E= -.33263235E+03 F= -.33188315E+03 E0= -.33180578E+03  EK= 0.53736E+00 SP= -.40E+01 SK= 0.27E+01
 bond charge predicted
 prediction of wavefunctions
       N       E                     dE             d eps       ncg     rms          rms(c)
DAV:   1    -0.331865519568E+03    0.17633E-01   -0.16403E-02   480   0.908E-01    0.260E-02
DAV:   2    -0.331866141230E+03   -0.62166E-03   -0.65666E-03   360   0.147E-01    0.299E-02
DAV:   3    -0.331866113966E+03    0.27264E-04   -0.94358E-05   220   0.261E-02    0.235E-02
DAV:   4    -0.331866078463E+03    0.35502E-04   -0.12939E-04   240   0.220E-02    0.769E-03
DAV:   5    -0.331866081161E+03   -0.26977E-05   -0.46179E-05   220   0.124E-02    0.376E-03
DAV:   6    -0.331866081473E+03   -0.31200E-06   -0.63151E-06   220   0.606E-03
   85 T=    83. E= -.33262976E+03 F= -.33186608E+03 E0= -.33178863E+03  EK= 0.66826E+00 SP= -.46E+01 SK= 0.32E+01
 bond charge predicted
 prediction of wavefunctions
       N       E                     dE             d eps       ncg     rms          rms(c)
DAV:   1    -0.331819299181E+03    0.46782E-01   -0.16529E-02   580   0.102E+00    0.274E-02
DAV:   2    -0.331819931461E+03   -0.63228E-03   -0.66185E-03   360   0.159E-01    0.291E-02
DAV:   3    -0.331819907753E+03    0.23708E-04   -0.89851E-05   240   0.252E-02    0.226E-02
DAV:   4    -0.331819878446E+03    0.29308E-04   -0.12581E-04   240   0.211E-02    0.684E-03
DAV:   5    -0.331819881798E+03   -0.33525E-05   -0.41053E-05   220   0.119E-02    0.379E-03
DAV:   6    -0.331819882072E+03   -0.27352E-06   -0.61444E-06   220   0.563E-03
   86 T=   102. E= -.33262658E+03 F= -.33181988E+03 E0= -.33174227E+03  EK= 0.81769E+00 SP= -.52E+01 SK= 0.36E+01
 bond charge predicted
 prediction of wavefunctions
       N       E                     dE             d eps       ncg     rms          rms(c)
DAV:   1    -0.331713241994E+03    0.10664E+00   -0.17976E-02   540   0.114E+00    0.310E-02
DAV:   2    -0.331713985534E+03   -0.74354E-03   -0.78545E-03   340   0.173E-01    0.316E-02
DAV:   3    -0.331713957081E+03    0.28453E-04   -0.12213E-04   260   0.282E-02    0.244E-02
DAV:   4    -0.331713924452E+03    0.32629E-04   -0.14163E-04   260   0.216E-02    0.794E-03
DAV:   5    -0.331713927697E+03   -0.32449E-05   -0.42452E-05   220   0.118E-02    0.398E-03
DAV:   6    -0.331713927997E+03   -0.30022E-06   -0.59552E-06   220   0.562E-03
   87 T=   120. E= -.33262316E+03 F= -.33171393E+03 E0= -.33163592E+03  EK= 0.96072E+00 SP= -.59E+01 SK= 0.40E+01
 bond charge predicted
 prediction of wavefunctions
       N       E                     dE             d eps       ncg     rms          rms(c)
DAV:   1    -0.331508282087E+03    0.20565E+00   -0.20844E-02   500   0.122E+00    0.349E-02
DAV:   2    -0.331509125813E+03   -0.84373E-03   -0.89102E-03   360   0.193E-01    0.321E-02
DAV:   3    -0.331509099632E+03    0.26181E-04   -0.13298E-04   300   0.288E-02    0.242E-02
DAV:   4    -0.331509072140E+03    0.27492E-04   -0.15003E-04   260   0.218E-02    0.693E-03
DAV:   5    -0.331509076226E+03   -0.40851E-05   -0.38979E-05   220   0.117E-02    0.398E-03
DAV:   6    -0.331509076429E+03   -0.20389E-06   -0.52715E-06   220   0.539E-03
   88 T=   132. E= -.33261925E+03 F= -.33150908E+03 E0= -.33143016E+03  EK= 0.10546E+01 SP= -.66E+01 SK= 0.45E+01
 bond charge predicted
 prediction of wavefunctions
       N       E                     dE             d eps       ncg     rms          rms(c)
DAV:   1    -0.331171867266E+03    0.33721E+00   -0.22811E-02   480   0.126E+00    0.396E-02
DAV:   2    -0.331172751344E+03   -0.88408E-03   -0.95259E-03   360   0.206E-01    0.312E-02
DAV:   3    -0.331172731505E+03    0.19840E-04   -0.14942E-04   280   0.305E-02    0.226E-02
DAV:   4    -0.331172713997E+03    0.17508E-04   -0.12843E-04   240   0.211E-02    0.621E-03
DAV:   5    -0.331172717468E+03   -0.34707E-05   -0.29140E-05   220   0.108E-02    0.363E-03
DAV:   6    -0.331172717542E+03   -0.74189E-07   -0.40357E-06   160   0.503E-03
   89 T=   131. E= -.33261386E+03 F= -.33117272E+03 E0= -.33109196E+03  EK= 0.10484E+01 SP= -.74E+01 SK= 0.49E+01
 bond charge predicted
 prediction of wavefunctions
       N       E                     dE             d eps       ncg     rms          rms(c)
DAV:   1    -0.330711125058E+03    0.46159E+00   -0.22621E-02   440   0.122E+00    0.440E-02
DAV:   2    -0.330712152685E+03   -0.10276E-02   -0.10929E-02   360   0.223E-01    0.302E-02
DAV:   3    -0.330712141963E+03    0.10722E-04   -0.15028E-04   280   0.322E-02    0.216E-02
DAV:   4    -0.330712130024E+03    0.11938E-04   -0.92697E-05   220   0.213E-02    0.579E-03
DAV:   5    -0.330712133388E+03   -0.33632E-05   -0.30123E-05   160   0.113E-02    0.375E-03
DAV:   6    -0.330712133116E+03    0.27150E-06   -0.39421E-06   160   0.533E-03
   90 T=   114. E= -.33260571E+03 F= -.33071213E+03 E0= -.33062860E+03  EK= 0.91580E+00 SP= -.82E+01 SK= 0.53E+01
 bond charge predicted
 prediction of wavefunctions
       N       E                     dE             d eps       ncg     rms          rms(c)
DAV:   1    -0.330212468480E+03    0.49966E+00   -0.27289E-02   480   0.111E+00    0.543E-02
DAV:   2    -0.330214314446E+03   -0.18460E-02   -0.18989E-02   320   0.286E-01    0.456E-02
DAV:   3    -0.330214277535E+03    0.36911E-04   -0.23966E-04   360   0.390E-02    0.334E-02
DAV:   4    -0.330214242030E+03    0.35505E-04   -0.20373E-04   320   0.266E-02    0.941E-03
DAV:   5    -0.330214246597E+03   -0.45674E-05   -0.47214E-05   220   0.131E-02    0.578E-03
DAV:   6    -0.330214246345E+03    0.25168E-06   -0.71997E-06   220   0.624E-03
   91 T=    88. E= -.33259522E+03 F= -.33021425E+03 E0= -.33012785E+03  EK= 0.70711E+00 SP= -.90E+01 SK= 0.59E+01
 bond charge predicted
 prediction of wavefunctions
       N       E                     dE             d eps       ncg     rms          rms(c)
DAV:   1    -0.329845326247E+03    0.36892E+00   -0.39983E-02   380   0.988E-01    0.671E-02
DAV:   2    -0.329847415012E+03   -0.20888E-02   -0.22419E-02   360   0.306E-01    0.544E-02
DAV:   3    -0.329847374028E+03    0.40984E-04   -0.49558E-04   380   0.485E-02    0.378E-02
DAV:   4    -0.329847343113E+03    0.30915E-04   -0.14933E-04   260   0.232E-02    0.137E-02
DAV:   5    -0.329847346567E+03   -0.34536E-05   -0.48127E-05   220   0.133E-02    0.501E-03
DAV:   6    -0.329847346080E+03    0.48638E-06   -0.78565E-06   160   0.678E-03
   92 T=    72. E= -.33258624E+03 F= -.32984735E+03 E0= -.32975924E+03  EK= 0.58012E+00 SP= -.98E+01 SK= 0.65E+01
 bond charge predicted
 prediction of wavefunctions
       N       E                     dE             d eps       ncg     rms          rms(c)
DAV:   1    -0.329771196152E+03    0.76150E-01   -0.25505E-02   380   0.904E-01    0.531E-02
DAV:   2    -0.329772647302E+03   -0.14511E-02   -0.15275E-02   360   0.251E-01    0.469E-02
DAV:   3    -0.329772597188E+03    0.50114E-04   -0.27260E-04   340   0.401E-02    0.350E-02
DAV:   4    -0.329772549773E+03    0.47415E-04   -0.30355E-04   300   0.307E-02    0.928E-03
DAV:   5    -0.329772553701E+03   -0.39277E-05   -0.56230E-05   160   0.142E-02    0.591E-03
DAV:   6    -0.329772552757E+03    0.94359E-06   -0.10223E-05   160   0.694E-03
   93 T=    94. E= -.33258325E+03 F= -.32977255E+03 E0= -.32968458E+03  EK= 0.75244E+00 SP= -.11E+02 SK= 0.72E+01
 bond charge predicted
 prediction of wavefunctions
       N       E                     dE             d eps       ncg     rms          rms(c)
DAV:   1    -0.329994632566E+03   -0.22208E+00   -0.10895E-02   480   0.113E+00    0.442E-02
DAV:   2    -0.329995786508E+03   -0.11539E-02   -0.12977E-02   360   0.215E-01    0.350E-02
DAV:   3    -0.329995743989E+03    0.42519E-04   -0.24461E-04   360   0.390E-02    0.253E-02
DAV:   4    -0.329995700277E+03    0.43712E-04   -0.16383E-04   240   0.247E-02    0.721E-03
DAV:   5    -0.329995704253E+03   -0.39765E-05   -0.58221E-05   220   0.142E-02    0.463E-03
DAV:   6    -0.329995704000E+03    0.25354E-06   -0.73870E-06   160   0.712E-03
   94 T=   172. E= -.33258498E+03 F= -.32999570E+03 E0= -.32990950E+03  EK= 0.13747E+01 SP= -.12E+02 SK= 0.77E+01
 bond charge predicted
 prediction of wavefunctions
       N       E                     dE             d eps       ncg     rms          rms(c)
DAV:   1    -0.330300940451E+03   -0.30524E+00   -0.42364E-02   420   0.168E+00    0.871E-02
DAV:   2    -0.330305723753E+03   -0.47833E-02   -0.52106E-02   320   0.455E-01    0.760E-02
DAV:   3    -0.330305646084E+03    0.77669E-04   -0.10390E-03   420   0.720E-02    0.556E-02
DAV:   4    -0.330305553515E+03    0.92569E-04   -0.32174E-04   360   0.337E-02    0.227E-02
DAV:   5    -0.330305559098E+03   -0.55829E-05   -0.12910E-04   220   0.209E-02    0.773E-03
DAV:   6    -0.330305557570E+03    0.15275E-05   -0.29024E-05   160   0.126E-02
   95 T=   303. E= -.33258569E+03 F= -.33030556E+03 E0= -.33022166E+03  EK= 0.24267E+01 SP= -.13E+02 SK= 0.79E+01
 bond charge predicted
 prediction of wavefunctions
       N       E                     dE             d eps       ncg     rms          rms(c)
DAV:   1    -0.330376336923E+03   -0.70778E-01   -0.11363E-01   420   0.230E+00    0.126E-01
DAV:   2    -0.330386541042E+03   -0.10204E-01   -0.10671E-01   360   0.675E-01    0.106E-01
DAV:   3    -0.330386428587E+03    0.11246E-03   -0.16120E-03   400   0.921E-02    0.789E-02
DAV:   4    -0.330386292484E+03    0.13610E-03   -0.56953E-04   380   0.453E-02    0.323E-02
DAV:   5    -0.330386313310E+03   -0.20826E-04   -0.23909E-04   300   0.268E-02    0.116E-02
DAV:   6    -0.330386308812E+03    0.44977E-05   -0.27935E-05   220   0.128E-02
   96 T=   465. E= -.33258397E+03 F= -.33038631E+03 E0= -.33030394E+03  EK= 0.37295E+01 SP= -.14E+02 SK= 0.77E+01
 bond charge predicted
 prediction of wavefunctions
       N       E                     dE             d eps       ncg     rms          rms(c)
DAV:   1    -0.329980952731E+03    0.40536E+00   -0.15892E-01   480   0.282E+00    0.141E-01
DAV:   2    -0.329994801453E+03   -0.13849E-01   -0.14101E-01   360   0.797E-01    0.106E-01
DAV:   3    -0.329994686307E+03    0.11515E-03   -0.16069E-03   380   0.959E-02    0.793E-02
DAV:   4    -0.329994563823E+03    0.12248E-03   -0.62757E-04   380   0.463E-02    0.346E-02
DAV:   5    -0.329994588029E+03   -0.24207E-04   -0.20085E-04   260   0.254E-02    0.132E-02
DAV:   6    -0.329994588682E+03   -0.65246E-06   -0.24046E-05   220   0.117E-02
   97 T=   629. E= -.33258310E+03 F= -.32999459E+03 E0= -.32991270E+03  EK= 0.50372E+01 SP= -.15E+02 SK= 0.69E+01
 bond charge predicted
 prediction of wavefunctions
       N       E                     dE             d eps       ncg     rms          rms(c)
DAV:   1    -0.329040659322E+03    0.95393E+00   -0.22084E-01   460   0.317E+00    0.145E-01
DAV:   2    -0.329057211638E+03   -0.16552E-01   -0.16921E-01   360   0.920E-01    0.977E-02
DAV:   3    -0.329057216229E+03   -0.45908E-05   -0.21347E-03   360   0.105E-01    0.697E-02
DAV:   4    -0.329057169708E+03    0.46521E-04   -0.33661E-04   340   0.362E-02    0.396E-02
DAV:   5    -0.329057197561E+03   -0.27853E-04   -0.22538E-04   300   0.279E-02    0.123E-02
DAV:   6    -0.329057195423E+03    0.21382E-05   -0.66626E-05   220   0.161E-02
   98 T=   764. E= -.33258209E+03 F= -.32905720E+03 E0= -.32897487E+03  EK= 0.61265E+01 SP= -.15E+02 SK= 0.57E+01
 bond charge predicted
 prediction of wavefunctions
       N       E                     dE             d eps       ncg     rms          rms(c)
DAV:   1    -0.327671614829E+03    0.13856E+01   -0.36002E-01   420   0.343E+00    0.163E-01
DAV:   2    -0.327693784358E+03   -0.22170E-01   -0.22750E-01   340   0.107E+00    0.118E-01
DAV:   3    -0.327693796292E+03   -0.11934E-04   -0.30585E-03   420   0.124E-01    0.821E-02
DAV:   4    -0.327693701227E+03    0.95065E-04   -0.74453E-04   320   0.513E-02    0.362E-02
DAV:   5    -0.327693738557E+03   -0.37330E-04   -0.28137E-04   280   0.307E-02    0.156E-02
DAV:   6    -0.327693732643E+03    0.59136E-05   -0.59902E-05   200   0.156E-02
   99 T=   859. E= -.33257325E+03 F= -.32769373E+03 E0= -.32760931E+03  EK= 0.68864E+01 SP= -.16E+02 SK= 0.44E+01
 bond charge predicted
 prediction of wavefunctions
       N       E                     dE             d eps       ncg     rms          rms(c)
DAV:   1    -0.326194887705E+03    0.14989E+01   -0.69932E-01   420   0.352E+00    0.211E-01
DAV:   2    -0.326221483696E+03   -0.26596E-01   -0.27994E-01   360   0.118E+00    0.147E-01
DAV:   3    -0.326221249022E+03    0.23467E-03   -0.54433E-03   420   0.151E-01    0.103E-01
DAV:   4    -0.326221119468E+03    0.12955E-03   -0.75828E-04   360   0.513E-02    0.637E-02
DAV:   5    -0.326221130953E+03   -0.11485E-04   -0.53490E-04   380   0.414E-02    0.200E-02
DAV:   6    -0.326221144859E+03   -0.13906E-04   -0.97272E-05   240   0.193E-02
  100 T=   925. E= -.33255477E+03 F= -.32622114E+03 E0= -.32613262E+03  EK= 0.74171E+01 SP= -.17E+02 SK= 0.30E+01
 bond charge predicted
 prediction of wavefunctions
       N       E                     dE             d eps       ncg     rms          rms(c)
DAV:   1    -0.325050943658E+03    0.11702E+01   -0.92230E-01   400   0.351E+00    0.237E-01
DAV:   2    -0.325080063101E+03   -0.29119E-01   -0.30656E-01   360   0.124E+00    0.165E-01
DAV:   3    -0.325079775299E+03    0.28780E-03   -0.81070E-03   440   0.166E-01    0.113E-01
DAV:   4    -0.325079666268E+03    0.10903E-03   -0.91900E-04   380   0.564E-02    0.712E-02
DAV:   5    -0.325079700159E+03   -0.33891E-04   -0.55402E-04   360   0.429E-02    0.222E-02
DAV:   6    -0.325079714785E+03   -0.14626E-04   -0.85712E-05   220   0.189E-02
  101 T=  1000. E= -.33254285E+03 F= -.32507971E+03 E0= -.32499080E+03  EK= 0.80133E+01 SP= -.17E+02 SK= 0.18E+01
 bond charge predicted
 prediction of wavefunctions
       N       E                     dE             d eps       ncg     rms          rms(c)
DAV:   1    -0.324553096739E+03    0.52660E+00   -0.91570E-01   400   0.355E+00    0.239E-01
DAV:   2    -0.324585483146E+03   -0.32386E-01   -0.32741E-01   340   0.127E+00    0.163E-01
DAV:   3    -0.324585704217E+03   -0.22107E-03   -0.62573E-03   400   0.164E-01    0.110E-01
DAV:   4    -0.324585705352E+03   -0.11354E-05   -0.99210E-04   340   0.526E-02    0.732E-02
DAV:   5    -0.324585765396E+03   -0.60044E-04   -0.49457E-04   340   0.431E-02    0.213E-02
DAV:   6    -0.324585773356E+03   -0.79603E-05   -0.10674E-04   240   0.215E-02
  102 T=  1109. E= -.33255917E+03 F= -.32458577E+03 E0= -.32451653E+03  EK= 0.88892E+01 SP= -.18E+02 SK= 0.85E+00
 bond charge predicted
 prediction of wavefunctions
       N       E                     dE             d eps       ncg     rms          rms(c)
DAV:   1    -0.324621243395E+03   -0.35478E-01   -0.10791E+00   400   0.373E+00    0.425E-01
DAV:   2    -0.324656733296E+03   -0.35490E-01   -0.45806E-01   360   0.138E+00    0.271E-01
DAV:   3    -0.324655465923E+03    0.12674E-02   -0.29601E-02   380   0.262E-01    0.142E-01
DAV:   4    -0.324655519294E+03   -0.53371E-04   -0.18845E-03   400   0.772E-02    0.860E-02
DAV:   5    -0.324655611215E+03   -0.91921E-04   -0.53415E-04   340   0.458E-02    0.213E-02
DAV:   6    -0.324655614090E+03   -0.28755E-05   -0.94277E-05   220   0.188E-02
  103 T=  1225. E= -.33260780E+03 F= -.32465561E+03 E0= -.32463320E+03  EK= 0.98138E+01 SP= -.18E+02 SK= 0.17E+00
Information: wavefunction orthogonal band  159  0.8436
 bond charge predicted
 prediction of wavefunctions
       N       E                     dE             d eps       ncg     rms          rms(c)
DAV:   1    -0.324741373652E+03   -0.85762E-01   -0.11685E+00   420   0.404E+00    0.494E-01
DAV:   2    -0.324781758608E+03   -0.40385E-01   -0.54658E-01   360   0.151E+00    0.241E-01
DAV:   3    -0.324781675861E+03    0.82747E-04   -0.25495E-02   380   0.275E-01    0.149E-01
DAV:   4    -0.324781576065E+03    0.99796E-04   -0.23894E-03   360   0.834E-02    0.903E-02
DAV:   5    -0.324781596056E+03   -0.19991E-04   -0.60350E-04   360   0.467E-02    0.221E-02
DAV:   6    -0.324781599086E+03   -0.30302E-05   -0.94326E-05   220   0.210E-02
  104 T=  1262. E= -.33264549E+03 F= -.32478160E+03 E0= -.32477993E+03  EK= 0.10111E+02 SP= -.18E+02 SK= 0.17E-01
 bond charge predicted
 prediction of wavefunctions
       N       E                     dE             d eps       ncg     rms          rms(c)
DAV:   1    -0.324427825341E+03    0.35377E+00   -0.11586E+00   460   0.427E+00    0.351E-01
DAV:   2    -0.324481885584E+03   -0.54060E-01   -0.55752E-01   340   0.160E+00    0.165E-01
DAV:   3    -0.324482408238E+03   -0.52265E-03   -0.94036E-03   420   0.205E-01    0.983E-02
DAV:   4    -0.324482493392E+03   -0.85154E-04   -0.86833E-04   340   0.569E-02    0.398E-02
DAV:   5    -0.324482526048E+03   -0.32656E-04   -0.14164E-04   240   0.198E-02    0.165E-02
DAV:   6    -0.324482531468E+03   -0.54193E-05   -0.36567E-05   200   0.120E-02
  105 T=  1157. E= -.33263245E+03 F= -.32448253E+03 E0= -.32448186E+03  EK= 0.92748E+01 SP= -.18E+02 SK= 0.43E+00
 bond charge predicted
 prediction of wavefunctions
       N       E                     dE             d eps       ncg     rms          rms(c)
DAV:   1    -0.323693068775E+03    0.78946E+00   -0.75124E-01   440   0.398E+00    0.302E-01
DAV:   2    -0.323741640858E+03   -0.48572E-01   -0.49234E-01   360   0.152E+00    0.144E-01
DAV:   3    -0.323742143835E+03   -0.50298E-03   -0.84285E-03   440   0.191E-01    0.873E-02
DAV:   4    -0.323742207537E+03   -0.63703E-04   -0.80127E-04   380   0.531E-02    0.433E-02
DAV:   5    -0.323742238952E+03   -0.31415E-04   -0.18324E-04   220   0.235E-02    0.177E-02
DAV:   6    -0.323742250374E+03   -0.11421E-04   -0.37178E-05   220   0.144E-02
  106 T=   939. E= -.33258843E+03 F= -.32374225E+03 E0= -.32373781E+03  EK= 0.75232E+01 SP= -.18E+02 SK= 0.12E+01
 bond charge predicted
 prediction of wavefunctions
       N       E                     dE             d eps       ncg     rms          rms(c)
DAV:   1    -0.322870731537E+03    0.87151E+00   -0.48078E-01   380   0.347E+00    0.272E-01
DAV:   2    -0.322911425630E+03   -0.40694E-01   -0.41788E-01   360   0.135E+00    0.137E-01
DAV:   3    -0.322911729662E+03   -0.30403E-03   -0.76398E-03   440   0.184E-01    0.844E-02
DAV:   4    -0.322911715965E+03    0.13697E-04   -0.97553E-04   400   0.576E-02    0.391E-02
DAV:   5    -0.322911733138E+03   -0.17173E-04   -0.24018E-04   240   0.262E-02    0.165E-02
DAV:   6    -0.322911740394E+03   -0.72559E-05   -0.40728E-05   220   0.144E-02
  107 T=   696. E= -.33254605E+03 F= -.32291174E+03 E0= -.32288342E+03  EK= 0.55762E+01 SP= -.17E+02 SK= 0.19E+01
 bond charge predicted
 prediction of wavefunctions
       N       E                     dE             d eps       ncg     rms          rms(c)
DAV:   1    -0.322370339158E+03    0.54139E+00   -0.35980E-01   400   0.289E+00    0.237E-01
DAV:   2    -0.322398454993E+03   -0.28116E-01   -0.29070E-01   360   0.114E+00    0.114E-01
DAV:   3    -0.322398655883E+03   -0.20089E-03   -0.44092E-03   380   0.150E-01    0.733E-02
DAV:   4    -0.322398652484E+03    0.33994E-05   -0.85554E-04   380   0.633E-02    0.225E-02
DAV:   5    -0.322398672997E+03   -0.20513E-04   -0.19646E-04   240   0.274E-02    0.132E-02
DAV:   6    -0.322398671676E+03    0.13203E-05   -0.30231E-05   220   0.127E-02
  108 T=   508. E= -.33252882E+03 F= -.32239867E+03 E0= -.32233454E+03  EK= 0.40705E+01 SP= -.17E+02 SK= 0.24E+01
 bond charge predicted
 prediction of wavefunctions
       N       E                     dE             d eps       ncg     rms          rms(c)
DAV:   1    -0.322364679323E+03    0.33994E-01   -0.24674E-01   360   0.232E+00    0.215E-01
DAV:   2    -0.322380734927E+03   -0.16056E-01   -0.17248E-01   360   0.887E-01    0.102E-01
DAV:   3    -0.322380812085E+03   -0.77159E-04   -0.33884E-03   420   0.128E-01    0.643E-02
DAV:   4    -0.322380868306E+03   -0.56221E-04   -0.62790E-04   400   0.449E-02    0.296E-02
DAV:   5    -0.322380915129E+03   -0.46823E-04   -0.12431E-04   240   0.182E-02    0.144E-02
DAV:   6    -0.322380947095E+03   -0.31966E-04   -0.39201E-05   260   0.119E-02
  109 T=   402. E= -.33253373E+03 F= -.32238095E+03 E0= -.32229639E+03  EK= 0.32182E+01 SP= -.16E+02 SK= 0.27E+01
 bond charge predicted
 prediction of wavefunctions
       N       E                     dE             d eps       ncg     rms          rms(c)
DAV:   1    -0.322765497771E+03   -0.38458E+00   -0.18732E-01   360   0.197E+00    0.150E-01
DAV:   2    -0.322775418025E+03   -0.99203E-02   -0.10534E-01   360   0.687E-01    0.790E-02
DAV:   3    -0.322775410286E+03    0.77393E-05   -0.20027E-03   400   0.100E-01    0.546E-02
DAV:   4    -0.322775400894E+03    0.93922E-05   -0.62526E-04   400   0.429E-02    0.216E-02
DAV:   5    -0.322775428983E+03   -0.28089E-04   -0.99568E-05   240   0.182E-02    0.114E-02
srun: Job step aborted: Waiting up to 32 seconds for job step to finish.
srun: got SIGCONT
slurmstepd: error: *** JOB 4034 ON mngnode CANCELLED AT 2018-11-30T10:21:40 ***
srun: forcing job termination
slurmstepd: error: *** STEP 4034.0 ON mngnode CANCELLED AT 2018-11-30T10:21:40 ***
