 vasp.5.4.1 05Feb16 (build Nov 22 2018 20:17:51) complex                        
  
 POSCAR found type information on POSCAR  Pd
 05/POSCAR found :  1 types and      33 ions
 scaLAPACK will be used

 ----------------------------------------------------------------------------- 
|                                                                             |
|           W    W    AA    RRRRR   N    N  II  N    N   GGGG   !!!           |
|           W    W   A  A   R    R  NN   N  II  NN   N  G    G  !!!           |
|           W    W  A    A  R    R  N N  N  II  N N  N  G       !!!           |
|           W WW W  AAAAAA  RRRRR   N  N N  II  N  N N  G  GGG   !            |
|           WW  WW  A    A  R   R   N   NN  II  N   NN  G    G                |
|           W    W  A    A  R    R  N    N  II  N    N   GGGG   !!!           |
|                                                                             |
|      For optimal performance we recommend to set                            |
|        NCORE= 4 - approx SQRT( number of cores)                             |
|      NCORE specifies how many cores store one orbital (NPAR=cpu/NCORE).     |
|      This setting can  greatly improve the performance of VASP for DFT.     |
|      The default, NPAR=number of cores might be grossly inefficient         |
|      on modern multi-core architectures or massively parallel machines.     |
|      Do your own testing !!!!                                               |
|      Unfortunately you need to use the default for GW and RPA calculations. |
|      (for HF NCORE is supported but not extensively tested yet)             |
|                                                                             |
 ----------------------------------------------------------------------------- 

 LDA part: xc-table for Ceperly-Alder, standard interpolation
 POSCAR found type information on POSCAR  Pd
 00/POSCAR found :  1 types and      33 ions
 POSCAR found type information on POSCAR  Pd
 06/POSCAR found :  1 types and      33 ions
 Jacobian:    20.4934437754924     
 POSCAR, INCAR and KPOINTS ok, starting setup
 WARNING: small aliasing (wrap around) errors must be expected
 FFT: planning ...
 WAVECAR not read
 entering main loop
       N       E                     dE             d eps       ncg     rms          rms(c)
DAV:   1     0.284573142085E+04    0.28457E+04   -0.13709E+05 10000   0.138E+03
DAV:   2     0.719080784483E+02   -0.27738E+04   -0.25902E+04 10264   0.415E+02
DAV:   3    -0.153641987599E+03   -0.22555E+03   -0.20304E+03 11640   0.112E+02
DAV:   4    -0.165822190174E+03   -0.12180E+02   -0.11208E+02 11848   0.274E+01
DAV:   5    -0.166089673515E+03   -0.26748E+00   -0.26696E+00 12208   0.368E+00    0.156E+01
RMM:   6    -0.166437279984E+03   -0.34761E+00   -0.25846E+01 10001   0.158E+01    0.192E+01
RMM:   7    -0.179544764165E+03   -0.13107E+02   -0.11950E+01 10033   0.782E+00    0.291E+01
RMM:   8    -0.166164462408E+03    0.13380E+02   -0.10133E+01 10031   0.810E+00    0.214E+01
RMM:   9    -0.159791995742E+03    0.63725E+01   -0.39090E+00 10026   0.564E+00    0.807E+00
RMM:  10    -0.159091847888E+03    0.70015E+00   -0.56782E-01 10041   0.191E+00    0.493E+00
RMM:  11    -0.159033138599E+03    0.58709E-01   -0.38075E-01 10025   0.167E+00    0.584E+00
RMM:  12    -0.158750245072E+03    0.28289E+00   -0.17912E-01 10029   0.111E+00    0.295E+00
RMM:  13    -0.158705792090E+03    0.44453E-01   -0.14546E-01 10024   0.100E+00    0.266E+00
RMM:  14    -0.158675404364E+03    0.30388E-01   -0.13166E-01 10029   0.942E-01    0.242E+00
RMM:  15    -0.158608435626E+03    0.66969E-01   -0.74436E-02 10025   0.719E-01    0.106E+00
RMM:  16    -0.158599236325E+03    0.91993E-02   -0.25229E-02 10024   0.421E-01    0.753E-01
RMM:  17    -0.158592515922E+03    0.67204E-02   -0.10777E-02 10037   0.257E-01    0.653E-01
RMM:  18    -0.158588428306E+03    0.40876E-02   -0.40353E-03 10027   0.168E-01    0.399E-01
RMM:  19    -0.158585022913E+03    0.34054E-02   -0.50458E-03 10029   0.165E-01    0.381E-01
RMM:  20    -0.158581069021E+03    0.39539E-02   -0.38963E-03 10026   0.149E-01    0.534E-01
RMM:  21    -0.158576537398E+03    0.45316E-02   -0.19543E-03 10071   0.999E-02    0.227E-01
RMM:  22    -0.158573757172E+03    0.27802E-02   -0.13788E-03 10027   0.916E-02    0.115E-01
RMM:  23    -0.158572910161E+03    0.84701E-03   -0.93275E-04 10207   0.581E-02    0.276E-01
RMM:  24    -0.158571011706E+03    0.18985E-02   -0.59102E-04 10006   0.503E-02    0.160E-01
RMM:  25    -0.158570474328E+03    0.53738E-03   -0.46301E-04 10002   0.399E-02    0.140E-01
RMM:  26    -0.158573337808E+03   -0.28635E-02   -0.57161E-04  9999   0.438E-02    0.348E-01
RMM:  27    -0.158574145654E+03   -0.80785E-03   -0.13258E-04  8887   0.198E-02    0.360E-01
RMM:  28    -0.158574446190E+03   -0.30054E-03   -0.13796E-05  5829   0.798E-03    0.383E-01
RMM:  29    -0.158577285347E+03   -0.28392E-02   -0.12515E-04  9853   0.193E-02    0.625E-01
RMM:  30    -0.158575685825E+03    0.15995E-02   -0.26683E-05  6093   0.133E-02    0.482E-01
RMM:  31    -0.158573638513E+03    0.20473E-02   -0.24645E-04  9926   0.248E-02    0.152E-01
RMM:  32    -0.158575756635E+03   -0.21181E-02   -0.68112E-04  9997   0.415E-02    0.274E-01
RMM:  33    -0.158575828605E+03   -0.71970E-04   -0.17092E-04  8709   0.249E-02    0.113E-01
RMM:  34    -0.158576352214E+03   -0.52361E-03   -0.13302E-04  8009   0.172E-02    0.473E-02
RMM:  35    -0.158576851107E+03   -0.49889E-03   -0.10019E-04  7582   0.145E-02    0.113E-01
RMM:  36    -0.158576929576E+03   -0.78469E-04   -0.56820E-05  6995   0.114E-02    0.826E-02
RMM:  37    -0.158576900243E+03    0.29333E-04   -0.18682E-05  6041   0.760E-03    0.375E-02
RMM:  38    -0.158577002906E+03   -0.10266E-03   -0.37044E-05  7043   0.101E-02    0.899E-02
RMM:  39    -0.158577041679E+03   -0.38773E-04   -0.70141E-06  5636   0.763E-03    0.971E-02
RMM:  40    -0.158576957878E+03    0.83801E-04   -0.76538E-06  5624   0.576E-03    0.179E-02
RMM:  41    -0.158576964624E+03   -0.67460E-05   -0.64465E-06  5592   0.481E-03
   1 F= -.15857696E+03 E0= -.15857413E+03  d E =-.158577E+03
quench:  g(F)=  0.000E+00 g(S)=  0.000E+00 dE (1.order)= 0.000E+00
 bond charge predicted
       N       E                     dE             d eps       ncg     rms          rms(c)
DAV:   1    -0.158904757066E+03   -0.32780E+00   -0.30486E+01 10272   0.109E+01    0.136E+00
RMM:   2    -0.159730750329E+03   -0.82599E+00   -0.10298E+00 10041   0.220E+00    0.110E+01
RMM:   3    -0.159085795258E+03    0.64496E+00   -0.29903E-01 10172   0.126E+00    0.305E+00
RMM:   4    -0.159036090245E+03    0.49705E-01   -0.91275E-02 10143   0.766E-01    0.230E+00
RMM:   5    -0.158981987561E+03    0.54103E-01   -0.19017E-02 10032   0.362E-01    0.756E-01
RMM:   6    -0.158977077547E+03    0.49100E-02   -0.46742E-03 10031   0.192E-01    0.557E-01
RMM:   7    -0.158974916330E+03    0.21612E-02   -0.37410E-03 10030   0.149E-01    0.483E-01
RMM:   8    -0.158972526788E+03    0.23895E-02   -0.62287E-03 10157   0.162E-01    0.296E-01
RMM:   9    -0.158971825825E+03    0.70096E-03   -0.31227E-03 10445   0.118E-01    0.156E-01
RMM:  10    -0.158971761339E+03    0.64486E-04   -0.99685E-04 10713   0.687E-02    0.126E-01
RMM:  11    -0.158971603986E+03    0.15735E-03   -0.24513E-04 10010   0.388E-02    0.631E-02
RMM:  12    -0.158971624900E+03   -0.20914E-04   -0.12337E-04  9998   0.289E-02    0.819E-02
RMM:  13    -0.158971570461E+03    0.54439E-04   -0.88082E-05  9786   0.241E-02    0.445E-02
RMM:  14    -0.158971557681E+03    0.12780E-04   -0.25066E-05  5907   0.141E-02    0.297E-02
RMM:  15    -0.158971555965E+03    0.17165E-05   -0.12482E-05  5428   0.119E-02
   2 F= -.15897156E+03 E0= -.15896871E+03  d E =-.394591E+00
quench:  g(F)=  0.000E+00 g(S)=  0.000E+00 dE (1.order)= 0.000E+00
 bond charge predicted
       N       E                     dE             d eps       ncg     rms          rms(c)
DAV:   1    -0.159042756805E+03   -0.71199E-01   -0.81491E+01 10048   0.182E+01    0.199E+00
RMM:   2    -0.159815442628E+03   -0.77269E+00   -0.30275E+00 10047   0.420E+00    0.927E+00
RMM:   3    -0.159541338917E+03    0.27410E+00   -0.78891E-01 11844   0.181E+00    0.482E+00
RMM:   4    -0.159474824219E+03    0.66515E-01   -0.19170E-01 10044   0.111E+00    0.398E+00
RMM:   5    -0.159300850586E+03    0.17397E+00   -0.58711E-02 10032   0.653E-01    0.117E+00
RMM:   6    -0.159287630967E+03    0.13220E-01   -0.15857E-02 10029   0.333E-01    0.956E-01
RMM:   7    -0.159281172107E+03    0.64589E-02   -0.12398E-02 10080   0.249E-01    0.805E-01
RMM:   8    -0.159273640375E+03    0.75317E-02   -0.16640E-02 10324   0.260E-01    0.394E-01
RMM:   9    -0.159272911758E+03    0.72862E-03   -0.91084E-03 10695   0.201E-01    0.309E-01
RMM:  10    -0.159272194332E+03    0.71743E-03   -0.37756E-03 11089   0.125E-01    0.151E-01
RMM:  11    -0.159272045796E+03    0.14854E-03   -0.84029E-04 10145   0.720E-02    0.109E-01
RMM:  12    -0.159271973177E+03    0.72619E-04   -0.30516E-04 10018   0.476E-02    0.928E-02
RMM:  13    -0.159271877193E+03    0.95984E-04   -0.11399E-04  9993   0.303E-02    0.378E-02
RMM:  14    -0.159271874569E+03    0.26239E-05   -0.59971E-05  8189   0.183E-02
   3 F= -.15927187E+03 E0= -.15926905E+03  d E =-.300319E+00
quench:  g(F)=  0.000E+00 g(S)=  0.000E+00 dE (1.order)= 0.000E+00
 bond charge predicted
       N       E                     dE             d eps       ncg     rms          rms(c)
DAV:   1    -0.159132855895E+03    0.13902E+00   -0.67815E+01 10016   0.171E+01    0.150E+00
RMM:   2    -0.159543215077E+03   -0.41036E+00   -0.23089E+00 10046   0.372E+00    0.524E+00
RMM:   3    -0.159507572928E+03    0.35642E-01   -0.52263E-01 13381   0.143E+00    0.418E+00
RMM:   4    -0.159397292735E+03    0.11028E+00   -0.10074E-01 10039   0.841E-01    0.233E+00
RMM:   5    -0.159332707142E+03    0.64586E-01   -0.27911E-02 10033   0.465E-01    0.856E-01
RMM:   6    -0.159326548263E+03    0.61589E-02   -0.79086E-03 10032   0.224E-01    0.711E-01
RMM:   7    -0.159321476008E+03    0.50723E-02   -0.13571E-02 10212   0.243E-01    0.569E-01
RMM:   8    -0.159317412685E+03    0.40633E-02   -0.16117E-02 11035   0.242E-01    0.308E-01
RMM:   9    -0.159317545040E+03   -0.13235E-03   -0.76772E-03 11675   0.178E-01    0.316E-01
RMM:  10    -0.159316992536E+03    0.55250E-03   -0.26867E-03 11704   0.108E-01    0.170E-01
RMM:  11    -0.159316753887E+03    0.23865E-03   -0.37358E-04 10039   0.516E-02    0.138E-01
RMM:  12    -0.159316468683E+03    0.28520E-03   -0.33942E-04 10003   0.419E-02    0.867E-02
RMM:  13    -0.159316382560E+03    0.86122E-04   -0.21193E-04 10623   0.303E-02    0.521E-02
RMM:  14    -0.159316361480E+03    0.21080E-04   -0.22981E-04 11000   0.295E-02    0.358E-02
RMM:  15    -0.159316362454E+03   -0.97389E-06   -0.10201E-04  9850   0.199E-02    0.193E-02
RMM:  16    -0.159316365296E+03   -0.28424E-05   -0.14284E-05  5534   0.102E-02
   4 F= -.15931637E+03 E0= -.15931360E+03  d E =-.444907E-01
quench:  g(F)=  0.000E+00 g(S)=  0.000E+00 dE (1.order)= 0.000E+00
 bond charge predicted
       N       E                     dE             d eps       ncg     rms          rms(c)
DAV:   1    -0.159323332838E+03   -0.69704E-02   -0.99504E-01 10208   0.207E+00    0.167E-01
RMM:   2    -0.159326499687E+03   -0.31668E-02   -0.32022E-02 10047   0.390E-01    0.265E-01
RMM:   3    -0.159328679171E+03   -0.21795E-02   -0.53693E-03 12848   0.144E-01    0.540E-01
RMM:   4    -0.159326886485E+03    0.17927E-02   -0.91748E-04 10072   0.721E-02    0.319E-01
RMM:   5    -0.159325863415E+03    0.10231E-02   -0.35295E-04 10020   0.507E-02    0.888E-02
RMM:   6    -0.159325782678E+03    0.80737E-04   -0.60802E-05  8274   0.197E-02    0.728E-02
RMM:   7    -0.159325737675E+03    0.45003E-04   -0.89130E-05  9592   0.209E-02    0.657E-02
RMM:   8    -0.159325667316E+03    0.70359E-04   -0.28846E-04 10107   0.321E-02    0.296E-02
RMM:   9    -0.159325675487E+03   -0.81712E-05   -0.17111E-04 11081   0.256E-02    0.284E-02
RMM:  10    -0.159325673630E+03    0.18563E-05   -0.32253E-05  6163   0.137E-02
   5 F= -.15932567E+03 E0= -.15932291E+03  d E =-.930833E-02
quench:  g(F)=  0.000E+00 g(S)=  0.000E+00 dE (1.order)= 0.000E+00
 bond charge predicted
       N       E                     dE             d eps       ncg     rms          rms(c)
DAV:   1    -0.159329350553E+03   -0.36751E-02   -0.21411E+00 10000   0.306E+00    0.250E-01
RMM:   2    -0.159336009747E+03   -0.66592E-02   -0.69173E-02 10047   0.572E-01    0.379E-01
RMM:   3    -0.159344149293E+03   -0.81395E-02   -0.11853E-02 13195   0.210E-01    0.988E-01
RMM:   4    -0.159336679688E+03    0.74696E-02   -0.23338E-03 10051   0.118E-01    0.407E-01
RMM:   5    -0.159334842287E+03    0.18374E-02   -0.79873E-04 10027   0.779E-02    0.129E-01
RMM:   6    -0.159334675965E+03    0.16632E-03   -0.14762E-04  9890   0.301E-02    0.103E-01
RMM:   7    -0.159334565501E+03    0.11046E-03   -0.21217E-04 10506   0.299E-02    0.890E-02
RMM:   8    -0.159334429862E+03    0.13564E-03   -0.50127E-04 10242   0.422E-02    0.429E-02
RMM:   9    -0.159334442661E+03   -0.12799E-04   -0.35795E-04 12643   0.363E-02    0.434E-02
RMM:  10    -0.159334436236E+03    0.64246E-05   -0.67392E-05  8854   0.193E-02
   6 F= -.15933444E+03 E0= -.15933169E+03  d E =-.876261E-02
quench:  g(F)=  0.000E+00 g(S)=  0.000E+00 dE (1.order)= 0.000E+00
 bond charge predicted
       N       E                     dE             d eps       ncg     rms          rms(c)
DAV:   1    -0.159334142238E+03    0.30042E-03   -0.29514E+00 10000   0.359E+00    0.275E-01
RMM:   2    -0.159341932668E+03   -0.77904E-02   -0.91049E-02 10047   0.653E-01    0.274E-01
RMM:   3    -0.159349675749E+03   -0.77431E-02   -0.14750E-02 13553   0.241E-01    0.898E-01
RMM:   4    -0.159344461713E+03    0.52140E-02   -0.20806E-03 10078   0.108E-01    0.514E-01
RMM:   5    -0.159341865463E+03    0.25963E-02   -0.95518E-04 10017   0.861E-02    0.147E-01
RMM:   6    -0.159341657280E+03    0.20818E-03   -0.18322E-04  9978   0.333E-02    0.123E-01
RMM:   7    -0.159341418174E+03    0.23911E-03   -0.41922E-04 10449   0.395E-02    0.894E-02
RMM:   8    -0.159341282745E+03    0.13543E-03   -0.66927E-04 10718   0.480E-02    0.490E-02
RMM:   9    -0.159341323552E+03   -0.40807E-04   -0.53492E-04 12645   0.440E-02    0.604E-02
RMM:  10    -0.159341313389E+03    0.10163E-04   -0.96037E-05  9729   0.227E-02    0.407E-02
RMM:  11    -0.159341296708E+03    0.16681E-04   -0.95970E-06  5289   0.901E-03    0.349E-02
RMM:  12    -0.159341267723E+03    0.28984E-04   -0.42000E-05  6922   0.142E-02    0.199E-02
RMM:  13    -0.159341261748E+03    0.59757E-05   -0.24451E-05  5262   0.118E-02
   7 F= -.15934126E+03 E0= -.15933854E+03  d E =-.682551E-02
quench:  g(F)=  0.000E+00 g(S)=  0.000E+00 dE (1.order)= 0.000E+00
 bond charge predicted
       N       E                     dE             d eps       ncg     rms          rms(c)
DAV:   1    -0.159339308929E+03    0.19588E-02   -0.33049E+00 10000   0.378E+00    0.263E-01
RMM:   2    -0.159347997594E+03   -0.86887E-02   -0.97853E-02 10047   0.678E-01    0.278E-01
RMM:   3    -0.159362810774E+03   -0.14813E-01   -0.15433E-02 13586   0.250E-01    0.128E+00
RMM:   4    -0.159349305539E+03    0.13505E-01   -0.26504E-03 10045   0.128E-01    0.306E-01
RMM:   5    -0.159347973274E+03    0.13323E-02   -0.76198E-04 10012   0.785E-02    0.150E-01
RMM:   6    -0.159347781921E+03    0.19135E-03   -0.21080E-04 10109   0.314E-02    0.132E-01
RMM:   7    -0.159347456728E+03    0.32519E-03   -0.70912E-04 10188   0.498E-02    0.827E-02
RMM:   8    -0.159347403389E+03    0.53339E-04   -0.83765E-04 12262   0.531E-02    0.725E-02
RMM:   9    -0.159347436716E+03   -0.33327E-04   -0.49376E-04 11702   0.435E-02    0.592E-02
RMM:  10    -0.159347419885E+03    0.16831E-04   -0.64602E-05  8772   0.194E-02    0.493E-02
RMM:  11    -0.159347388117E+03    0.31768E-04   -0.14193E-05  5304   0.109E-02    0.396E-02
RMM:  12    -0.159347352536E+03    0.35581E-04   -0.78199E-05  9176   0.179E-02    0.181E-02
RMM:  13    -0.159347348175E+03    0.43607E-05   -0.26454E-05  5527   0.118E-02
   8 F= -.15934735E+03 E0= -.15934468E+03  d E =-.608643E-02
quench:  g(F)=  0.000E+00 g(S)=  0.000E+00 dE (1.order)= 0.000E+00
 bond charge predicted
       N       E                     dE             d eps       ncg     rms          rms(c)
DAV:   1    -0.159344257576E+03    0.30950E-02   -0.38630E+00 10000   0.409E+00    0.281E-01
RMM:   2    -0.159354051428E+03   -0.97939E-02   -0.11374E-01 10049   0.734E-01    0.222E-01
RMM:   3    -0.159360609280E+03   -0.65579E-02   -0.17011E-02 13979   0.257E-01    0.796E-01
RMM:   4    -0.159356331632E+03    0.42776E-02   -0.15259E-03 10082   0.938E-02    0.447E-01
RMM:   5    -0.159354434997E+03    0.18966E-02   -0.74332E-04 10015   0.763E-02    0.168E-01
RMM:   6    -0.159354222633E+03    0.21236E-03   -0.17273E-04 10010   0.308E-02    0.150E-01
RMM:   7    -0.159353834914E+03    0.38772E-03   -0.63023E-04 10221   0.473E-02    0.101E-01
RMM:   8    -0.159353660606E+03    0.17431E-03   -0.12814E-03 10910   0.659E-02    0.638E-02
RMM:   9    -0.159353757043E+03   -0.96437E-04   -0.87458E-04 13051   0.551E-02    0.810E-02
RMM:  10    -0.159353732293E+03    0.24750E-04   -0.92756E-05  9709   0.245E-02    0.588E-02
RMM:  11    -0.159353693459E+03    0.38834E-04   -0.13761E-05  5373   0.101E-02    0.499E-02
RMM:  12    -0.159353633102E+03    0.60357E-04   -0.14920E-04  9913   0.236E-02    0.205E-02
RMM:  13    -0.159353628309E+03    0.47930E-05   -0.50872E-05  7513   0.148E-02
   9 F= -.15935363E+03 E0= -.15935101E+03  d E =-.628013E-02
quench:  g(F)=  0.000E+00 g(S)=  0.000E+00 dE (1.order)= 0.000E+00
 bond charge predicted
       N       E                     dE             d eps       ncg     rms          rms(c)
DAV:   1    -0.159348345619E+03    0.52875E-02   -0.35181E+00 10000   0.391E+00    0.277E-01
RMM:   2    -0.159362718468E+03   -0.14373E-01   -0.10598E-01 10049   0.705E-01    0.778E-01
RMM:   3    -0.159364413675E+03   -0.16952E-02   -0.16709E-02 13983   0.249E-01    0.853E-01
RMM:   4    -0.159359012131E+03    0.54015E-02   -0.28470E-03 10033   0.146E-01    0.348E-01
RMM:   5    -0.159357512835E+03    0.14993E-02   -0.72212E-04 10028   0.776E-02    0.154E-01
RMM:   6    -0.159357324197E+03    0.18864E-03   -0.20688E-04  9985   0.322E-02    0.130E-01
RMM:   7    -0.159357034936E+03    0.28926E-03   -0.95479E-04 10509   0.586E-02    0.109E-01
RMM:   8    -0.159356925445E+03    0.10949E-03   -0.10603E-03 11881   0.588E-02    0.655E-02
RMM:   9    -0.159356936106E+03   -0.10661E-04   -0.26886E-04 11851   0.338E-02    0.553E-02
RMM:  10    -0.159356917773E+03    0.18332E-04   -0.30508E-05  6198   0.147E-02    0.402E-02
RMM:  11    -0.159356903969E+03    0.13804E-04   -0.10192E-05  5336   0.116E-02    0.341E-02
RMM:  12    -0.159356877535E+03    0.26434E-04   -0.42101E-05  6901   0.136E-02    0.180E-02
RMM:  13    -0.159356873882E+03    0.36532E-05   -0.17792E-05  5234   0.103E-02
  10 F= -.15935687E+03 E0= -.15935430E+03  d E =-.324557E-02
quench:  g(F)=  0.000E+00 g(S)=  0.000E+00 dE (1.order)= 0.000E+00
 bond charge predicted
       N       E                     dE             d eps       ncg     rms          rms(c)
DAV:   1    -0.159357572071E+03   -0.69454E-03   -0.94003E-01 10016   0.202E+00    0.151E-01
RMM:   2    -0.159360303897E+03   -0.27318E-02   -0.28994E-02 10047   0.371E-01    0.205E-01
RMM:   3    -0.159362321991E+03   -0.20181E-02   -0.48746E-03 13272   0.138E-01    0.485E-01
RMM:   4    -0.159360894044E+03    0.14279E-02   -0.67755E-04 10097   0.616E-02    0.292E-01
RMM:   5    -0.159360041514E+03    0.85253E-03   -0.27970E-04 10007   0.453E-02    0.859E-02
RMM:   6    -0.159359975103E+03    0.66411E-04   -0.48232E-05  7470   0.176E-02    0.736E-02
RMM:   7    -0.159359912081E+03    0.63021E-04   -0.11287E-04  9895   0.229E-02    0.629E-02
RMM:   8    -0.159359844386E+03    0.67696E-04   -0.28382E-04 10427   0.314E-02    0.321E-02
RMM:   9    -0.159359851725E+03   -0.73395E-05   -0.18149E-04 11399   0.258E-02    0.316E-02
RMM:  10    -0.159359849284E+03    0.24410E-05   -0.35067E-05  6484   0.138E-02
  11 F= -.15935985E+03 E0= -.15935727E+03  d E =-.297540E-02
quench:  g(F)=  0.000E+00 g(S)=  0.000E+00 dE (1.order)= 0.000E+00
 bond charge predicted
       N       E                     dE             d eps       ncg     rms          rms(c)
DAV:   1    -0.159360412971E+03   -0.56125E-03   -0.18334E-01 10264   0.889E-01    0.751E-02
RMM:   2    -0.159361465016E+03   -0.10520E-02   -0.58490E-03 10050   0.163E-01    0.253E-01
RMM:   3    -0.159361269238E+03    0.19578E-03   -0.95965E-04 13515   0.586E-02    0.200E-01
RMM:   4    -0.159360990145E+03    0.27909E-03   -0.23042E-04  9988   0.416E-02    0.949E-02
RMM:   5    -0.159360877250E+03    0.11290E-03   -0.53156E-05  8226   0.216E-02    0.341E-02
RMM:   6    -0.159360865831E+03    0.11419E-04   -0.12866E-05  5330   0.109E-02    0.280E-02
RMM:   7    -0.159360856848E+03    0.89822E-05   -0.36734E-05  6370   0.147E-02
  12 F= -.15936086E+03 E0= -.15935828E+03  d E =-.100756E-02
quench:  g(F)=  0.000E+00 g(S)=  0.000E+00 dE (1.order)= 0.000E+00
 bond charge predicted
       N       E                     dE             d eps       ncg     rms          rms(c)
DAV:   1    -0.159361365017E+03   -0.49919E-03   -0.27925E-01 10080   0.110E+00    0.833E-02
RMM:   2    -0.159362169658E+03   -0.80464E-03   -0.82244E-03 10046   0.193E-01    0.125E-01
RMM:   3    -0.159363319430E+03   -0.11498E-02   -0.13383E-03 13584   0.699E-02    0.370E-01
RMM:   4    -0.159362226090E+03    0.10933E-02   -0.28118E-04 10005   0.434E-02    0.108E-01
RMM:   5    -0.159362069605E+03    0.15649E-03   -0.80668E-05  9427   0.258E-02    0.443E-02
RMM:   6    -0.159362053675E+03    0.15930E-04   -0.13647E-05  5392   0.985E-03    0.378E-02
RMM:   7    -0.159362027502E+03    0.26173E-04   -0.74189E-05  8997   0.186E-02    0.274E-02
RMM:   8    -0.159362019761E+03    0.77410E-05   -0.69910E-05  9080   0.168E-02
  13 F= -.15936202E+03 E0= -.15935946E+03  d E =-.116291E-02
quench:  g(F)=  0.000E+00 g(S)=  0.000E+00 dE (1.order)= 0.000E+00
 bond charge predicted
       N       E                     dE             d eps       ncg     rms          rms(c)
DAV:   1    -0.159362432435E+03   -0.40493E-03   -0.34461E-01 10152   0.122E+00    0.942E-02
RMM:   2    -0.159363467757E+03   -0.10353E-02   -0.10297E-02 10050   0.216E-01    0.153E-01
RMM:   3    -0.159364723444E+03   -0.12557E-02   -0.16517E-03 13673   0.780E-02    0.393E-01
RMM:   4    -0.159363513995E+03    0.12094E-02   -0.33811E-04 10004   0.480E-02    0.123E-01
RMM:   5    -0.159363318834E+03    0.19516E-03   -0.96378E-05  9952   0.287E-02    0.464E-02
RMM:   6    -0.159363294934E+03    0.23900E-04   -0.22214E-05  5627   0.122E-02    0.401E-02
RMM:   7    -0.159363271846E+03    0.23088E-04   -0.59553E-05  8389   0.179E-02    0.306E-02
RMM:   8    -0.159363259848E+03    0.11998E-04   -0.10149E-04  9773   0.203E-02    0.191E-02
RMM:   9    -0.159363263569E+03   -0.37211E-05   -0.49926E-05  7676   0.148E-02
  14 F= -.15936326E+03 E0= -.15936070E+03  d E =-.124381E-02
quench:  g(F)=  0.000E+00 g(S)=  0.000E+00 dE (1.order)= 0.000E+00
 bond charge predicted
       N       E                     dE             d eps       ncg     rms          rms(c)
DAV:   1    -0.159363430801E+03   -0.17095E-03   -0.45749E-01 10048   0.141E+00    0.113E-01
RMM:   2    -0.159365971993E+03   -0.25412E-02   -0.14302E-02 10053   0.254E-01    0.391E-01
RMM:   3    -0.159365295673E+03    0.67632E-03   -0.22795E-03 13788   0.900E-02    0.261E-01
RMM:   4    -0.159364800051E+03    0.49562E-03   -0.36219E-04 10004   0.530E-02    0.124E-01
RMM:   5    -0.159364608946E+03    0.19110E-03   -0.95167E-05  9720   0.288E-02    0.488E-02
RMM:   6    -0.159364582170E+03    0.26776E-04   -0.33304E-05  6373   0.137E-02    0.420E-02
RMM:   7    -0.159364550826E+03    0.31345E-04   -0.15332E-04 10488   0.253E-02    0.297E-02
RMM:   8    -0.159364546423E+03    0.44031E-05   -0.73995E-05  9199   0.171E-02
  15 F= -.15936455E+03 E0= -.15936200E+03  d E =-.128285E-02
quench:  g(F)=  0.000E+00 g(S)=  0.000E+00 dE (1.order)= 0.000E+00
 bond charge predicted
       N       E                     dE             d eps       ncg     rms          rms(c)
DAV:   1    -0.159364378713E+03    0.17211E-03   -0.55876E-01 10216   0.156E+00    0.121E-01
RMM:   2    -0.159366746439E+03   -0.23677E-02   -0.17127E-02 10049   0.279E-01    0.328E-01
RMM:   3    -0.159367044488E+03   -0.29805E-03   -0.27170E-03 13902   0.985E-02    0.361E-01
RMM:   4    -0.159366094935E+03    0.94955E-03   -0.50379E-04 10006   0.616E-02    0.148E-01
RMM:   5    -0.159365821206E+03    0.27373E-03   -0.13502E-04  9973   0.344E-02    0.577E-02
RMM:   6    -0.159365785126E+03    0.36081E-04   -0.40182E-05  6966   0.150E-02    0.478E-02
RMM:   7    -0.159365743347E+03    0.41779E-04   -0.17906E-04 10705   0.267E-02    0.360E-02
RMM:   8    -0.159365735556E+03    0.77914E-05   -0.11963E-04 10135   0.209E-02    0.244E-02
RMM:   9    -0.159365736479E+03   -0.92290E-06   -0.29884E-05  5807   0.131E-02
  16 F= -.15936574E+03 E0= -.15936319E+03  d E =-.119006E-02
quench:  g(F)=  0.000E+00 g(S)=  0.000E+00 dE (1.order)= 0.000E+00
 bond charge predicted
       N       E                     dE             d eps       ncg     rms          rms(c)
DAV:   1    -0.159365659739E+03    0.75816E-04   -0.64989E-01 10216   0.168E+00    0.131E-01
RMM:   2    -0.159369892230E+03   -0.42325E-02   -0.20473E-02 10054   0.306E-01    0.530E-01
RMM:   3    -0.159368104759E+03    0.17875E-02   -0.32520E-03 13828   0.108E-01    0.265E-01
RMM:   4    -0.159367572355E+03    0.53240E-03   -0.44256E-04 10015   0.591E-02    0.137E-01
RMM:   5    -0.159367346789E+03    0.22557E-03   -0.11646E-04  9933   0.319E-02    0.592E-02
RMM:   6    -0.159367307636E+03    0.39152E-04   -0.61159E-05  8595   0.171E-02    0.515E-02
RMM:   7    -0.159367262481E+03    0.45155E-04   -0.19863E-04 10279   0.268E-02    0.368E-02
RMM:   8    -0.159367256641E+03    0.58399E-05   -0.96106E-05  9776   0.192E-02
  17 F= -.15936726E+03 E0= -.15936471E+03  d E =-.152016E-02
quench:  g(F)=  0.000E+00 g(S)=  0.000E+00 dE (1.order)= 0.000E+00
 bond charge predicted
       N       E                     dE             d eps       ncg     rms          rms(c)
DAV:   1    -0.159367916037E+03   -0.65356E-03   -0.66894E-01 10136   0.172E+00    0.129E-01
RMM:   2    -0.159372093480E+03   -0.41774E-02   -0.20809E-02 10046   0.311E-01    0.518E-01
RMM:   3    -0.159370463495E+03    0.16300E-02   -0.32688E-03 13883   0.109E-01    0.277E-01
RMM:   4    -0.159369902638E+03    0.56086E-03   -0.49962E-04 10014   0.626E-02    0.146E-01
RMM:   5    -0.159369648506E+03    0.25413E-03   -0.12689E-04  9982   0.334E-02    0.625E-02
RMM:   6    -0.159369604535E+03    0.43971E-04   -0.59944E-05  8546   0.173E-02    0.516E-02
RMM:   7    -0.159369552375E+03    0.52160E-04   -0.23383E-04 10568   0.290E-02    0.357E-02
RMM:   8    -0.159369548346E+03    0.40294E-05   -0.11402E-04 10043   0.207E-02    0.257E-02
RMM:   9    -0.159369548073E+03    0.27267E-06   -0.30671E-05  5811   0.128E-02
  18 F= -.15936955E+03 E0= -.15936700E+03  d E =-.229143E-02
quench:  g(F)=  0.000E+00 g(S)=  0.000E+00 dE (1.order)= 0.000E+00
 bond charge predicted
       N       E                     dE             d eps       ncg     rms          rms(c)
DAV:   1    -0.159369277126E+03    0.27122E-03   -0.63041E-01 10088   0.166E+00    0.133E-01
RMM:   2    -0.159375800711E+03   -0.65236E-02   -0.20627E-02 10056   0.310E-01    0.724E-01
RMM:   3    -0.159371660698E+03    0.41400E-02   -0.33530E-03 13199   0.112E-01    0.244E-01
RMM:   4    -0.159371226801E+03    0.43390E-03   -0.66821E-04 10017   0.718E-02    0.160E-01
RMM:   5    -0.159370919805E+03    0.30700E-03   -0.14037E-04  9989   0.354E-02    0.611E-02
RMM:   6    -0.159370886565E+03    0.33240E-04   -0.35786E-05  6733   0.152E-02    0.540E-02
RMM:   7    -0.159370835813E+03    0.50752E-04   -0.17223E-04 10771   0.269E-02    0.387E-02
RMM:   8    -0.159370820856E+03    0.14956E-04   -0.11167E-04  9927   0.209E-02    0.239E-02
RMM:   9    -0.159370820738E+03    0.11864E-06   -0.47528E-05  7647   0.146E-02
  19 F= -.15937082E+03 E0= -.15936826E+03  d E =-.127266E-02
quench:  g(F)=  0.000E+00 g(S)=  0.000E+00 dE (1.order)= 0.000E+00
 bond charge predicted
       N       E                     dE             d eps       ncg     rms          rms(c)
DAV:   1    -0.159371405971E+03   -0.58511E-03   -0.42567E-01 10192   0.137E+00    0.104E-01
RMM:   2    -0.159373500731E+03   -0.20948E-02   -0.13211E-02 10047   0.247E-01    0.337E-01
RMM:   3    -0.159373132351E+03    0.36838E-03   -0.20358E-03 13976   0.856E-02    0.251E-01
RMM:   4    -0.159372650641E+03    0.48171E-03   -0.27271E-04 10003   0.462E-02    0.109E-01
RMM:   5    -0.159372508396E+03    0.14225E-03   -0.69054E-05  9496   0.245E-02    0.486E-02
RMM:   6    -0.159372484988E+03    0.23407E-04   -0.34893E-05  6387   0.144E-02    0.462E-02
RMM:   7    -0.159372449771E+03    0.35217E-04   -0.15612E-04 10464   0.257E-02    0.287E-02
RMM:   8    -0.159372449642E+03    0.12870E-06   -0.67664E-05  8978   0.168E-02
  20 F= -.15937245E+03 E0= -.15936989E+03  d E =-.162890E-02
quench:  g(F)=  0.000E+00 g(S)=  0.000E+00 dE (1.order)= 0.000E+00
 reached required accuracy - stopping structural energy minimisation
 writing wavefunctions
