 running on   40 total cores
 distrk:  each k-point on   40 cores,    1 groups
 distr:  one band on    1 cores,   40 groups
 using from now: INCAR     
 vasp.5.4.1 05Feb16 (build Sep 02 2018 21:45:25) complex                        
  
 POSCAR found type information on POSCAR  N 
 POSCAR found :  1 types and       2 ions
 scaLAPACK will be used

 ----------------------------------------------------------------------------- 
|                                                                             |
|           W    W    AA    RRRRR   N    N  II  N    N   GGGG   !!!           |
|           W    W   A  A   R    R  NN   N  II  NN   N  G    G  !!!           |
|           W    W  A    A  R    R  N N  N  II  N N  N  G       !!!           |
|           W WW W  AAAAAA  RRRRR   N  N N  II  N  N N  G  GGG   !            |
|           WW  WW  A    A  R   R   N   NN  II  N   NN  G    G                |
|           W    W  A    A  R    R  N    N  II  N    N   GGGG   !!!           |
|                                                                             |
|      For optimal performance we recommend to set                            |
|        NCORE= 4 - approx SQRT( number of cores)                             |
|      NCORE specifies how many cores store one orbital (NPAR=cpu/NCORE).     |
|      This setting can  greatly improve the performance of VASP for DFT.     |
|      The default, NPAR=number of cores might be grossly inefficient         |
|      on modern multi-core architectures or massively parallel machines.     |
|      Do your own testing !!!!                                               |
|      Unfortunately you need to use the default for GW and RPA calculations. |
|      (for HF NCORE is supported but not extensively tested yet)             |
|                                                                             |
 ----------------------------------------------------------------------------- 

 LDA part: xc-table for Ceperly-Alder, standard interpolation
 POSCAR, INCAR and KPOINTS ok, starting setup
 WARNING: small aliasing (wrap around) errors must be expected
 FFT: planning ...
 WAVECAR not read
 entering main loop
       N       E                     dE             d eps       ncg     rms          rms(c)
DAV:   1     0.502229581098E+02    0.50223E+02   -0.16712E+03   240   0.859E+01
DAV:   2    -0.116810602614E+02   -0.61904E+02   -0.61904E+02   240   0.331E+01
DAV:   3    -0.171834175545E+02   -0.55024E+01   -0.55024E+01   280   0.105E+01
DAV:   4    -0.171893127178E+02   -0.58952E-02   -0.58952E-02   160   0.377E-01
DAV:   5    -0.171893470521E+02   -0.34334E-04   -0.34334E-04   240   0.284E-02    0.740E+00
DAV:   6    -0.165865159332E+02    0.60283E+00   -0.21568E+00   160   0.252E+00    0.326E+00
DAV:   7    -0.165127408976E+02    0.73775E-01   -0.67819E-01   160   0.144E+00    0.124E+00
DAV:   8    -0.165771401093E+02   -0.64399E-01   -0.43969E-02   160   0.469E-01    0.515E-01
DAV:   9    -0.166124003987E+02   -0.35260E-01   -0.89856E-03   160   0.292E-01    0.179E-01
DAV:  10    -0.166290354224E+02   -0.16635E-01   -0.24423E-03   160   0.171E-01    0.524E-02
DAV:  11    -0.166396665510E+02   -0.10631E-01   -0.41887E-04   160   0.559E-02    0.312E-02
DAV:  12    -0.166500791900E+02   -0.10413E-01   -0.32423E-04   160   0.407E-02    0.194E-02
DAV:  13    -0.166628774704E+02   -0.12798E-01   -0.91244E-04   160   0.529E-02    0.965E-03
DAV:  14    -0.166663327315E+02   -0.34553E-02   -0.14047E-04   160   0.305E-02    0.706E-03
DAV:  15    -0.166691098215E+02   -0.27771E-02   -0.11476E-04   160   0.267E-02    0.356E-03
DAV:  16    -0.166705808547E+02   -0.14710E-02   -0.50152E-05   160   0.186E-02    0.211E-03
DAV:  17    -0.166710745366E+02   -0.49368E-03   -0.15745E-05   240   0.115E-02    0.145E-03
DAV:  18    -0.166712307476E+02   -0.15621E-03   -0.14549E-05   240   0.865E-03    0.728E-04
DAV:  19    -0.166713375652E+02   -0.10682E-03   -0.25437E-06   160   0.478E-03    0.527E-04
DAV:  20    -0.166714214594E+02   -0.83894E-04   -0.86283E-07   160   0.243E-03    0.369E-04
DAV:  21    -0.166715257029E+02   -0.10424E-03   -0.33257E-07   160   0.130E-03    0.218E-04
DAV:  22    -0.166715740718E+02   -0.48369E-04   -0.95890E-08   240   0.789E-04    0.134E-04
DAV:  23    -0.166715769629E+02   -0.28911E-05   -0.68265E-08   240   0.557E-04    0.862E-05
DAV:  24    -0.166715755724E+02    0.13905E-05   -0.30310E-08   240   0.416E-04    0.562E-05
DAV:  25    -0.166715746745E+02    0.89784E-06   -0.13969E-08   160   0.337E-04
   1 F= -.16671575E+02 E0= -.16671575E+02  d E =-.605275E-36  mag=     0.0000
 Finite differences POTIM= 0.05000 DOF=   6
 bond charge predicted
       N       E                     dE             d eps       ncg     rms          rms(c)
DAV:   1    -0.164830892445E+02    0.18849E+00   -0.11144E+01   160   0.769E+00    0.116E+00
DAV:   2    -0.164686988979E+02    0.14390E-01   -0.14613E-01   240   0.865E-01    0.645E-01
DAV:   3    -0.164618614079E+02    0.68375E-02   -0.43667E-02   240   0.396E-01    0.159E-01
DAV:   4    -0.164616966575E+02    0.16475E-03   -0.19113E-03   160   0.833E-02    0.816E-02
DAV:   5    -0.164617715380E+02   -0.74881E-04   -0.16397E-04   240   0.363E-02    0.800E-03
DAV:   6    -0.164618088505E+02   -0.37312E-04   -0.58620E-06   160   0.648E-03    0.467E-03
DAV:   7    -0.164618740367E+02   -0.65186E-04   -0.90471E-06   240   0.600E-03    0.178E-03
DAV:   8    -0.164618983975E+02   -0.24361E-04   -0.10909E-06   160   0.225E-03    0.145E-03
DAV:   9    -0.164619442655E+02   -0.45868E-04   -0.27944E-06   240   0.286E-03    0.579E-04
DAV:  10    -0.164619601144E+02   -0.15849E-04   -0.90327E-07   160   0.198E-03    0.395E-04
DAV:  11    -0.164619728575E+02   -0.12743E-04   -0.68609E-07   160   0.148E-03    0.272E-04
DAV:  12    -0.164619742721E+02   -0.14146E-05   -0.28420E-07   160   0.119E-03    0.168E-04
DAV:  13    -0.164619721058E+02    0.21663E-05   -0.12086E-07   160   0.763E-04    0.122E-04
DAV:  14    -0.164619706201E+02    0.14858E-05   -0.66195E-08   160   0.538E-04    0.761E-05
DAV:  15    -0.164619711542E+02   -0.53418E-06   -0.12024E-08   160   0.268E-04
   2 F= -.16461971E+02 E0= -.16461971E+02  d E =-.266165E-22  mag=    -0.0000
 Finite differences progress:
  Degree of freedom:   1/  6
  Displacement:        1/  2
  Total:               1/ 12
 bond charge predicted
       N       E                     dE             d eps       ncg     rms          rms(c)
DAV:   1    -0.165945221967E+02   -0.13255E+00   -0.41776E+01   160   0.146E+01    0.231E+00
DAV:   2    -0.165234675433E+02    0.71055E-01   -0.49767E-01   240   0.146E+00    0.116E+00
DAV:   3    -0.165048097462E+02    0.18658E-01   -0.94927E-02   240   0.574E-01    0.316E-01
DAV:   4    -0.165047804181E+02    0.29328E-04   -0.21155E-03   160   0.941E-02    0.955E-02
DAV:   5    -0.165048795366E+02   -0.99119E-04   -0.30754E-04   240   0.383E-02    0.127E-02
DAV:   6    -0.165049813063E+02   -0.10177E-03   -0.14170E-05   160   0.913E-03    0.671E-03
DAV:   7    -0.165051446092E+02   -0.16330E-03   -0.26188E-05   160   0.988E-03    0.373E-03
DAV:   8    -0.165052329197E+02   -0.88310E-04   -0.53086E-06   160   0.527E-03    0.272E-03
DAV:   9    -0.165053863871E+02   -0.15347E-03   -0.13004E-05   160   0.612E-03    0.141E-03
DAV:  10    -0.165054266735E+02   -0.40286E-04   -0.12958E-06   160   0.327E-03    0.951E-04
DAV:  11    -0.165055382145E+02   -0.11154E-03   -0.29148E-06   160   0.332E-03    0.525E-04
DAV:  12    -0.165055754402E+02   -0.37226E-04   -0.69339E-07   240   0.249E-03    0.347E-04
DAV:  13    -0.165056157994E+02   -0.40359E-04   -0.46573E-07   160   0.146E-03    0.283E-04
DAV:  14    -0.165056161893E+02   -0.38989E-06   -0.26759E-07   160   0.120E-03
   3 F= -.16505616E+02 E0= -.16505616E+02  d E =-.158841E-14  mag=    -0.0000
 Finite differences progress:
  Degree of freedom:   1/  6
  Displacement:        2/  2
  Total:               2/ 12
 bond charge predicted
       N       E                     dE             d eps       ncg     rms          rms(c)
DAV:   1    -0.166825213530E+02   -0.17691E+00   -0.20332E+01   160   0.102E+01    0.118E+00
DAV:   2    -0.166781853420E+02    0.43360E-02   -0.17449E-01   240   0.102E+00    0.702E-01
DAV:   3    -0.166718081375E+02    0.63772E-02   -0.53517E-02   240   0.428E-01    0.182E-01
DAV:   4    -0.166711486270E+02    0.65951E-03   -0.28329E-03   160   0.100E-01    0.859E-02
DAV:   5    -0.166712422957E+02   -0.93669E-04   -0.45960E-04   240   0.458E-02    0.101E-02
DAV:   6    -0.166713065058E+02   -0.64210E-04   -0.18327E-05   160   0.103E-02    0.390E-03
DAV:   7    -0.166713631247E+02   -0.56619E-04   -0.64567E-06   160   0.659E-03    0.180E-03
DAV:   8    -0.166714013143E+02   -0.38190E-04   -0.28154E-06   160   0.432E-03    0.112E-03
DAV:   9    -0.166714559155E+02   -0.54601E-04   -0.43015E-06   160   0.469E-03    0.649E-04
DAV:  10    -0.166714772919E+02   -0.21376E-04   -0.19357E-06   240   0.379E-03    0.452E-04
DAV:  11    -0.166714941224E+02   -0.16831E-04   -0.85704E-07   160   0.233E-03    0.264E-04
DAV:  12    -0.166715033479E+02   -0.92254E-05   -0.57315E-07   160   0.189E-03    0.166E-04
DAV:  13    -0.166715070634E+02   -0.37156E-05   -0.14076E-07   160   0.116E-03    0.128E-04
DAV:  14    -0.166715082532E+02   -0.11897E-05   -0.20839E-07   160   0.115E-03    0.620E-05
DAV:  15    -0.166715079096E+02    0.34362E-06   -0.41038E-08   160   0.565E-04
   4 F= -.16671508E+02 E0= -.16671508E+02  d E =-.221409E-34  mag=    -0.0000
 Finite differences progress:
  Degree of freedom:   2/  6
  Displacement:        1/  2
  Total:               3/ 12
 bond charge predicted
       N       E                     dE             d eps       ncg     rms          rms(c)
DAV:   1    -0.166691876024E+02    0.23207E-02   -0.37847E+01   160   0.130E+01    0.131E+00
DAV:   2    -0.166767950886E+02   -0.76075E-02   -0.22169E-01   240   0.113E+00    0.752E-01
DAV:   3    -0.166711830712E+02    0.56120E-02   -0.22502E-02   160   0.278E-01    0.110E-01
DAV:   4    -0.166712072741E+02   -0.24203E-04   -0.16070E-03   160   0.917E-02    0.638E-02
DAV:   5    -0.166712366469E+02   -0.29373E-04   -0.47660E-04   160   0.405E-02    0.125E-02
DAV:   6    -0.166712757257E+02   -0.39079E-04   -0.40286E-05   160   0.138E-02    0.452E-03
DAV:   7    -0.166713578711E+02   -0.82145E-04   -0.15136E-05   160   0.669E-03    0.131E-03
DAV:   8    -0.166713897290E+02   -0.31858E-04   -0.28439E-06   160   0.374E-03    0.134E-03
DAV:   9    -0.166714219393E+02   -0.32210E-04   -0.14254E-06   160   0.268E-03    0.672E-04
DAV:  10    -0.166714658010E+02   -0.43862E-04   -0.28205E-06   160   0.326E-03    0.699E-04
DAV:  11    -0.166714799840E+02   -0.14183E-04   -0.41134E-07   160   0.185E-03    0.522E-04
DAV:  12    -0.166715045362E+02   -0.24552E-04   -0.27008E-07   160   0.135E-03    0.187E-04
DAV:  13    -0.166715116502E+02   -0.71140E-05   -0.89479E-08   160   0.909E-04    0.182E-04
DAV:  14    -0.166715108876E+02    0.76260E-06   -0.62031E-08   160   0.630E-04
   5 F= -.16671511E+02 E0= -.16671511E+02  d E =-.761772E-34  mag=     0.0000
 Finite differences progress:
  Degree of freedom:   2/  6
  Displacement:        2/  2
  Total:               4/ 12
 bond charge predicted
       N       E                     dE             d eps       ncg     rms          rms(c)
DAV:   1    -0.166713244045E+02    0.18725E-03   -0.19069E+01   160   0.940E+00    0.892E-01
DAV:   2    -0.166747096290E+02   -0.33852E-02   -0.10100E-01   240   0.771E-01    0.524E-01
DAV:   3    -0.166713755919E+02    0.33340E-02   -0.11457E-02   160   0.203E-01    0.703E-02
DAV:   4    -0.166713577894E+02    0.17803E-04   -0.93606E-04   160   0.691E-02    0.405E-02
DAV:   5    -0.166713524981E+02    0.52912E-05   -0.21683E-04   160   0.267E-02    0.776E-03
DAV:   6    -0.166713687820E+02   -0.16284E-04   -0.16272E-05   160   0.871E-03    0.329E-03
DAV:   7    -0.166714041572E+02   -0.35375E-04   -0.53526E-06   160   0.419E-03    0.132E-03
DAV:   8    -0.166714298299E+02   -0.25673E-04   -0.30311E-06   160   0.321E-03    0.927E-04
DAV:   9    -0.166714487471E+02   -0.18917E-04   -0.69385E-07   160   0.185E-03    0.596E-04
DAV:  10    -0.166714801220E+02   -0.31375E-04   -0.16437E-06   160   0.256E-03    0.429E-04
DAV:  11    -0.166714911190E+02   -0.10997E-04   -0.26511E-07   160   0.163E-03    0.394E-04
DAV:  12    -0.166715077476E+02   -0.16629E-04   -0.16009E-07   160   0.111E-03    0.151E-04
DAV:  13    -0.166715109796E+02   -0.32319E-05   -0.80901E-08   160   0.878E-04    0.201E-04
DAV:  14    -0.166715097702E+02    0.12093E-05   -0.29471E-08   160   0.471E-04    0.479E-05
DAV:  15    -0.166715087082E+02    0.10620E-05   -0.14421E-08   160   0.370E-04    0.412E-05
DAV:  16    -0.166715078074E+02    0.90077E-06   -0.13027E-08   160   0.327E-04
   6 F= -.16671508E+02 E0= -.16671508E+02  d E =-.832596E-38  mag=     0.0000
 Finite differences progress:
  Degree of freedom:   3/  6
  Displacement:        1/  2
  Total:               5/ 12
 bond charge predicted
       N       E                     dE             d eps       ncg     rms          rms(c)
DAV:   1    -0.166695176218E+02    0.19911E-02   -0.37850E+01   160   0.130E+01    0.131E+00
DAV:   2    -0.166768090679E+02   -0.72914E-02   -0.21814E-01   240   0.113E+00    0.753E-01
DAV:   3    -0.166712086215E+02    0.56004E-02   -0.22945E-02   240   0.279E-01    0.109E-01
DAV:   4    -0.166712025647E+02    0.60568E-05   -0.13380E-03   160   0.860E-02    0.633E-02
DAV:   5    -0.166712394068E+02   -0.36842E-04   -0.51406E-04   160   0.419E-02    0.118E-02
DAV:   6    -0.166712766807E+02   -0.37274E-04   -0.40042E-05   160   0.137E-02    0.445E-03
DAV:   7    -0.166713497900E+02   -0.73109E-04   -0.11394E-05   160   0.586E-03    0.138E-03
DAV:   8    -0.166713905571E+02   -0.40767E-04   -0.39983E-06   160   0.389E-03    0.128E-03
DAV:   9    -0.166714157009E+02   -0.25144E-04   -0.91214E-07   160   0.234E-03    0.832E-04
DAV:  10    -0.166714630148E+02   -0.47314E-04   -0.29039E-06   160   0.336E-03    0.574E-04
DAV:  11    -0.166714807021E+02   -0.17687E-04   -0.65120E-07   160   0.239E-03    0.524E-04
DAV:  12    -0.166715022912E+02   -0.21589E-04   -0.28832E-07   160   0.159E-03    0.156E-04
DAV:  13    -0.166715115586E+02   -0.92674E-05   -0.12662E-07   160   0.112E-03    0.172E-04
DAV:  14    -0.166715109243E+02    0.63431E-06   -0.62211E-08   160   0.651E-04
   7 F= -.16671511E+02 E0= -.16671511E+02  d E =-.839434E-34  mag=    -0.0000
 Finite differences progress:
  Degree of freedom:   3/  6
  Displacement:        2/  2
  Total:               6/ 12
 bond charge predicted
       N       E                     dE             d eps       ncg     rms          rms(c)
DAV:   1    -0.165179711712E+02    0.15354E+00   -0.19938E+01   160   0.100E+01    0.127E+00
DAV:   2    -0.165103887236E+02    0.75824E-02   -0.22509E-01   240   0.101E+00    0.648E-01
DAV:   3    -0.165055032098E+02    0.48855E-02   -0.20166E-02   240   0.272E-01    0.198E-01
DAV:   4    -0.165052753455E+02    0.22786E-03   -0.10533E-03   240   0.722E-02    0.418E-02
DAV:   5    -0.165053038833E+02   -0.28538E-04   -0.19925E-04   160   0.303E-02    0.684E-03
DAV:   6    -0.165053558571E+02   -0.51974E-04   -0.98999E-06   160   0.705E-03    0.308E-03
DAV:   7    -0.165054385592E+02   -0.82702E-04   -0.11681E-05   160   0.579E-03    0.186E-03
DAV:   8    -0.165054819164E+02   -0.43357E-04   -0.22342E-06   160   0.284E-03    0.135E-03
DAV:   9    -0.165055371983E+02   -0.55282E-04   -0.21545E-06   160   0.249E-03    0.548E-04
DAV:  10    -0.165055915782E+02   -0.54380E-04   -0.10574E-06   240   0.182E-03    0.605E-04
DAV:  11    -0.165056190286E+02   -0.27450E-04   -0.27052E-07   160   0.133E-03    0.312E-04
DAV:  12    -0.165056307205E+02   -0.11692E-04   -0.85842E-08   160   0.830E-04    0.143E-04
DAV:  13    -0.165056348901E+02   -0.41696E-05   -0.21358E-07   160   0.988E-04    0.106E-04
DAV:  14    -0.165056330247E+02    0.18654E-05   -0.58457E-08   160   0.625E-04    0.785E-05
DAV:  15    -0.165056327835E+02    0.24125E-06   -0.54342E-08   160   0.589E-04
   8 F= -.16505633E+02 E0= -.16505633E+02  d E =-.213526E-15  mag=     0.0000
 Finite differences progress:
  Degree of freedom:   4/  6
  Displacement:        1/  2
  Total:               7/ 12
 bond charge predicted
       N       E                     dE             d eps       ncg     rms          rms(c)
DAV:   1    -0.165229939329E+02   -0.17361E-01   -0.43989E+01   160   0.153E+01    0.216E+00
DAV:   2    -0.164879265247E+02    0.35067E-01   -0.58029E-01   240   0.181E+00    0.126E+00
DAV:   3    -0.164623385264E+02    0.25588E-01   -0.18440E-01   240   0.809E-01    0.320E-01
DAV:   4    -0.164609514416E+02    0.13871E-02   -0.87007E-03   240   0.177E-01    0.164E-01
DAV:   5    -0.164612839110E+02   -0.33247E-03   -0.54453E-04   240   0.573E-02    0.161E-02
DAV:   6    -0.164614594586E+02   -0.17555E-03   -0.35966E-05   160   0.123E-02    0.586E-03
DAV:   7    -0.164616644514E+02   -0.20499E-03   -0.20682E-05   240   0.856E-03    0.352E-03
DAV:   8    -0.164617478301E+02   -0.83379E-04   -0.34628E-06   240   0.340E-03    0.251E-03
DAV:   9    -0.164618945122E+02   -0.14668E-03   -0.14998E-05   240   0.574E-03    0.961E-04
DAV:  10    -0.164619315164E+02   -0.37004E-04   -0.17601E-06   160   0.255E-03    0.858E-04
DAV:  11    -0.164619740232E+02   -0.42507E-04   -0.21752E-06   160   0.228E-03    0.474E-04
DAV:  12    -0.164619934470E+02   -0.19424E-04   -0.57149E-07   160   0.158E-03    0.282E-04
DAV:  13    -0.164620086333E+02   -0.15186E-04   -0.36665E-07   160   0.125E-03    0.299E-04
DAV:  14    -0.164620115156E+02   -0.28823E-05   -0.15051E-07   160   0.837E-04    0.846E-05
DAV:  15    -0.164620121631E+02   -0.64750E-06   -0.26812E-08   160   0.440E-04
   9 F= -.16462012E+02 E0= -.16462012E+02  d E =-.340665E-15  mag=     0.0000
 Finite differences progress:
  Degree of freedom:   4/  6
  Displacement:        2/  2
  Total:               8/ 12
 bond charge predicted
       N       E                     dE             d eps       ncg     rms          rms(c)
DAV:   1    -0.166963060950E+02   -0.23429E+00   -0.20295E+01   160   0.101E+01    0.139E+00
DAV:   2    -0.166783771318E+02    0.17929E-01   -0.21422E-01   240   0.100E+00    0.734E-01
DAV:   3    -0.166711636192E+02    0.72135E-02   -0.35027E-02   240   0.355E-01    0.183E-01
DAV:   4    -0.166710896681E+02    0.73951E-04   -0.11395E-03   160   0.710E-02    0.619E-02
DAV:   5    -0.166711547837E+02   -0.65116E-04   -0.22419E-04   160   0.326E-02    0.898E-03
DAV:   6    -0.166712148300E+02   -0.60046E-04   -0.17520E-05   160   0.103E-02    0.396E-03
DAV:   7    -0.166712735487E+02   -0.58719E-04   -0.57604E-06   160   0.553E-03    0.175E-03
DAV:   8    -0.166713342655E+02   -0.60717E-04   -0.42647E-06   160   0.470E-03    0.138E-03
DAV:   9    -0.166713979194E+02   -0.63654E-04   -0.37433E-06   160   0.453E-03    0.833E-04
DAV:  10    -0.166714342127E+02   -0.36293E-04   -0.12295E-06   240   0.338E-03    0.502E-04
DAV:  11    -0.166715032704E+02   -0.69058E-04   -0.15729E-06   240   0.314E-03    0.330E-04
DAV:  12    -0.166715194984E+02   -0.16228E-04   -0.29762E-07   160   0.188E-03    0.265E-04
DAV:  13    -0.166715282035E+02   -0.87051E-05   -0.17539E-07   160   0.981E-04    0.103E-04
DAV:  14    -0.166715246397E+02    0.35637E-05   -0.98833E-08   160   0.785E-04    0.107E-04
DAV:  15    -0.166715231512E+02    0.14886E-05   -0.22549E-08   160   0.436E-04    0.739E-05
DAV:  16    -0.166715213706E+02    0.17806E-05   -0.19533E-08   160   0.417E-04    0.246E-05
DAV:  17    -0.166715206743E+02    0.69624E-06   -0.70738E-09   160   0.251E-04
  10 F= -.16671521E+02 E0= -.16671521E+02  d E =-.137212E-38  mag=    -0.0000
 Finite differences progress:
  Degree of freedom:   5/  6
  Displacement:        1/  2
  Total:               9/ 12
 bond charge predicted
       N       E                     dE             d eps       ncg     rms          rms(c)
DAV:   1    -0.166693221255E+02    0.21992E-02   -0.37848E+01   160   0.130E+01    0.131E+00
DAV:   2    -0.166768304025E+02   -0.75083E-02   -0.21963E-01   240   0.113E+00    0.753E-01
DAV:   3    -0.166712177898E+02    0.56126E-02   -0.23031E-02   240   0.279E-01    0.109E-01
DAV:   4    -0.166712126876E+02    0.51022E-05   -0.13490E-03   160   0.863E-02    0.634E-02
DAV:   5    -0.166712517752E+02   -0.39088E-04   -0.51314E-04   160   0.418E-02    0.119E-02
DAV:   6    -0.166712887854E+02   -0.37010E-04   -0.40066E-05   160   0.137E-02    0.449E-03
DAV:   7    -0.166713615668E+02   -0.72781E-04   -0.11458E-05   160   0.569E-03    0.139E-03
DAV:   8    -0.166714015359E+02   -0.39969E-04   -0.36936E-06   160   0.339E-03    0.130E-03
DAV:   9    -0.166714260803E+02   -0.24544E-04   -0.74323E-07   160   0.180E-03    0.839E-04
DAV:  10    -0.166714745243E+02   -0.48444E-04   -0.27504E-06   160   0.273E-03    0.592E-04
DAV:  11    -0.166714926027E+02   -0.18078E-04   -0.40234E-07   160   0.176E-03    0.505E-04
DAV:  12    -0.166715170123E+02   -0.24410E-04   -0.21955E-07   160   0.129E-03    0.152E-04
DAV:  13    -0.166715269247E+02   -0.99124E-05   -0.95261E-08   160   0.976E-04    0.156E-04
DAV:  14    -0.166715241776E+02    0.27471E-05   -0.67112E-08   160   0.696E-04    0.797E-05
DAV:  15    -0.166715220779E+02    0.20997E-05   -0.27576E-08   160   0.458E-04    0.484E-05
DAV:  16    -0.166715212133E+02    0.86464E-06   -0.27702E-08   160   0.441E-04
  11 F= -.16671521E+02 E0= -.16671521E+02  d E =-.624032E-37  mag=    -0.0000
 Finite differences progress:
  Degree of freedom:   5/  6
  Displacement:        2/  2
  Total:              10/ 12
 bond charge predicted
       N       E                     dE             d eps       ncg     rms          rms(c)
DAV:   1    -0.166708608393E+02    0.66124E-03   -0.19064E+01   160   0.940E+00    0.891E-01
DAV:   2    -0.166747418059E+02   -0.38810E-02   -0.10581E-01   240   0.780E-01    0.525E-01
DAV:   3    -0.166713955949E+02    0.33462E-02   -0.11380E-02   160   0.202E-01    0.717E-02
DAV:   4    -0.166713685809E+02    0.27014E-04   -0.93627E-04   160   0.690E-02    0.407E-02
DAV:   5    -0.166713629322E+02    0.56487E-05   -0.22480E-04   160   0.271E-02    0.801E-03
DAV:   6    -0.166713790249E+02   -0.16093E-04   -0.16155E-05   160   0.857E-03    0.334E-03
DAV:   7    -0.166714154280E+02   -0.36403E-04   -0.57023E-06   160   0.405E-03    0.124E-03
DAV:   8    -0.166714399497E+02   -0.24522E-04   -0.26352E-06   160   0.274E-03    0.962E-04
DAV:   9    -0.166714590799E+02   -0.19130E-04   -0.62314E-07   160   0.147E-03    0.589E-04
DAV:  10    -0.166714922969E+02   -0.33217E-04   -0.15624E-06   160   0.215E-03    0.462E-04
DAV:  11    -0.166715041699E+02   -0.11873E-04   -0.19500E-07   240   0.128E-03    0.395E-04
DAV:  12    -0.166715232749E+02   -0.19105E-04   -0.15361E-07   160   0.105E-03    0.160E-04
DAV:  13    -0.166715259294E+02   -0.26545E-05   -0.84421E-08   160   0.870E-04    0.196E-04
DAV:  14    -0.166715231855E+02    0.27439E-05   -0.32508E-08   160   0.518E-04    0.546E-05
DAV:  15    -0.166715213340E+02    0.18515E-05   -0.24268E-08   160   0.467E-04    0.406E-05
DAV:  16    -0.166715208437E+02    0.49033E-06   -0.17544E-08   160   0.372E-04
  12 F= -.16671521E+02 E0= -.16671521E+02  d E =-.256001E-37  mag=    -0.0000
 Finite differences progress:
  Degree of freedom:   6/  6
  Displacement:        1/  2
  Total:              11/ 12
 bond charge predicted
       N       E                     dE             d eps       ncg     rms          rms(c)
DAV:   1    -0.166690997270E+02    0.24216E-02   -0.37846E+01   160   0.130E+01    0.131E+00
DAV:   2    -0.166768412597E+02   -0.77415E-02   -0.22191E-01   240   0.114E+00    0.754E-01
DAV:   3    -0.166712170628E+02    0.56242E-02   -0.23029E-02   240   0.279E-01    0.109E-01
DAV:   4    -0.166712124156E+02    0.46472E-05   -0.13492E-03   160   0.862E-02    0.634E-02
DAV:   5    -0.166712511211E+02   -0.38706E-04   -0.51569E-04   160   0.419E-02    0.119E-02
DAV:   6    -0.166712882555E+02   -0.37134E-04   -0.40159E-05   160   0.137E-02    0.452E-03
DAV:   7    -0.166713526809E+02   -0.64425E-04   -0.89362E-06   160   0.535E-03    0.167E-03
DAV:   8    -0.166714006617E+02   -0.47981E-04   -0.53552E-06   160   0.414E-03    0.127E-03
DAV:   9    -0.166714247009E+02   -0.24039E-04   -0.83453E-07   160   0.208E-03    0.885E-04
DAV:  10    -0.166714709968E+02   -0.46296E-04   -0.26490E-06   160   0.308E-03    0.528E-04
DAV:  11    -0.166714918684E+02   -0.20872E-04   -0.65508E-07   160   0.219E-03    0.533E-04
DAV:  12    -0.166715148031E+02   -0.22935E-04   -0.25023E-07   160   0.143E-03    0.160E-04
DAV:  13    -0.166715267347E+02   -0.11932E-04   -0.13796E-07   160   0.113E-03    0.170E-04
DAV:  14    -0.166715243687E+02    0.23660E-05   -0.78867E-08   160   0.778E-04    0.842E-05
DAV:  15    -0.166715221692E+02    0.21995E-05   -0.31051E-08   160   0.505E-04    0.495E-05
DAV:  16    -0.166715212221E+02    0.94706E-06   -0.30842E-08   160   0.462E-04
  13 F= -.16671521E+02 E0= -.16671521E+02  d E =-.648307E-37  mag=     0.0000
 Finite differences progress:
  Degree of freedom:   6/  6
  Displacement:        2/  2
  Total:              12/ 12
 Finite differences POTIM=  5.000000000000000E-002
 writing wavefunctions
