 vasp.5.4.1 24Jun15 (build Nov 26 2018 14:23:16) complex                        
  
 POSCAR found type information on POSCAR  C  N  H 
 02/POSCAR found :  3 types and       3 ions
 scaLAPACK will be used

 ----------------------------------------------------------------------------- 
|                                                                             |
|           W    W    AA    RRRRR   N    N  II  N    N   GGGG   !!!           |
|           W    W   A  A   R    R  NN   N  II  NN   N  G    G  !!!           |
|           W    W  A    A  R    R  N N  N  II  N N  N  G       !!!           |
|           W WW W  AAAAAA  RRRRR   N  N N  II  N  N N  G  GGG   !            |
|           WW  WW  A    A  R   R   N   NN  II  N   NN  G    G                |
|           W    W  A    A  R    R  N    N  II  N    N   GGGG   !!!           |
|                                                                             |
|      For optimal performance we recommend to set                            |
|        NCORE= 4 - approx SQRT( number of cores)                             |
|      NCORE specifies how many cores store one orbital (NPAR=cpu/NCORE).     |
|      This setting can  greatly improve the performance of VASP for DFT.     |
|      The default, NPAR=number of cores might be grossly inefficient         |
|      on modern multi-core architectures or massively parallel machines.     |
|      Do your own testing !!!!                                               |
|      Unfortunately you need to use the default for GW and RPA calculations. |
|      (for HF NCORE is supported but not extensively tested yet)             |
|                                                                             |
 ----------------------------------------------------------------------------- 

 LDA part: xc-table for Ceperly-Alder, standard interpolation
 POSCAR found type information on POSCAR  C  N  H 
 00/POSCAR found :  3 types and       3 ions
 POSCAR found type information on POSCAR  C  N  H 
 06/POSCAR found :  3 types and       3 ions
 Jacobian:    24.0187391035201     
 POSCAR, INCAR and KPOINTS ok, starting setup
 WARNING: small aliasing (wrap around) errors must be expected
 FFT: planning ...
 WAVECAR not read
 entering main loop
       N       E                     dE             d eps       ncg     rms          rms(c)
DAV:   1     0.940343239894E+02    0.94034E+02   -0.20632E+03    48   0.247E+02
DAV:   2    -0.140756908024E+01   -0.95442E+02   -0.94886E+02    48   0.896E+01
DAV:   3    -0.153833986943E+02   -0.13976E+02   -0.13967E+02    64   0.475E+01
DAV:   4    -0.154695492956E+02   -0.86151E-01   -0.86146E-01    64   0.392E+00
DAV:   5    -0.154695660496E+02   -0.16754E-04   -0.16753E-04    40   0.546E-02    0.150E+01
DAV:   6    -0.839069145576E+01    0.70789E+01   -0.15260E+01    40   0.191E+01    0.613E+00
DAV:   7    -0.730118670477E+01    0.10895E+01   -0.47319E+00    48   0.103E+01    0.179E+00
DAV:   8    -0.726403151284E+01    0.37155E-01   -0.10179E-01    48   0.156E+00    0.801E-01
DAV:   9    -0.724121023820E+01    0.22821E-01   -0.21586E-02    48   0.632E-01    0.174E-01
DAV:  10    -0.723899501844E+01    0.22152E-02   -0.38791E-03    32   0.300E-01    0.806E-02
DAV:  11    -0.723964820847E+01   -0.65319E-03   -0.38169E-03    32   0.286E-01    0.538E-02
DAV:  12    -0.724471425795E+01   -0.50660E-02   -0.34651E-03    32   0.286E-01    0.332E-02
DAV:  13    -0.724778024928E+01   -0.30660E-02   -0.12602E-03    40   0.152E-01    0.186E-02
DAV:  14    -0.725038147255E+01   -0.26012E-02   -0.79268E-04    32   0.111E-01    0.163E-02
DAV:  15    -0.725157510369E+01   -0.11936E-02   -0.31696E-04    32   0.670E-02    0.612E-03
DAV:  16    -0.725213108097E+01   -0.55598E-03   -0.92355E-05    48   0.355E-02    0.471E-03
DAV:  17    -0.725235643696E+01   -0.22536E-03   -0.18126E-05    48   0.165E-02    0.280E-03
DAV:  18    -0.725251660454E+01   -0.16017E-03   -0.79202E-06    48   0.982E-03    0.121E-03
DAV:  19    -0.725256328679E+01   -0.46682E-04   -0.12583E-06    40   0.394E-03    0.902E-04
DAV:  20    -0.725260890846E+01   -0.45622E-04   -0.18880E-06    32   0.462E-03    0.337E-04
DAV:  21    -0.725261744097E+01   -0.85325E-05   -0.23994E-07    32   0.205E-03
   1 F= -.72526174E+01 E0= -.72526174E+01  d E =-.725262E+01
quench:  g(F)=  0.000E+00 g(S)=  0.000E+00 dE (1.order)= 0.000E+00
 bond charge predicted
       N       E                     dE             d eps       ncg     rms          rms(c)
DAV:   1    -0.758952236836E+01   -0.33691E+00   -0.33331E-02    32   0.108E+00    0.120E-01
DAV:   2    -0.758911421131E+01    0.40816E-03   -0.14397E-03    56   0.189E-01    0.499E-02
DAV:   3    -0.758904961587E+01    0.64595E-04   -0.36454E-04    48   0.969E-02    0.133E-02
DAV:   4    -0.758904615316E+01    0.34627E-05   -0.94813E-06    32   0.178E-02
   2 F= -.75890462E+01 E0= -.75890462E+01  d E =-.336429E+00
quench:  g(F)=  0.000E+00 g(S)=  0.000E+00 dE (1.order)= 0.000E+00
 bond charge predicted
       N       E                     dE             d eps       ncg     rms          rms(c)
DAV:   1    -0.126852437063E+02   -0.50962E+01   -0.11349E+01    32   0.199E+01    0.213E+00
DAV:   2    -0.125523072056E+02    0.13294E+00   -0.48929E-01    48   0.328E+00    0.877E-01
DAV:   3    -0.125369581432E+02    0.15349E-01   -0.10185E-01    56   0.156E+00    0.255E-01
DAV:   4    -0.125364788062E+02    0.47934E-03   -0.17095E-03    40   0.255E-01    0.114E-01
DAV:   5    -0.125364140702E+02    0.64736E-04   -0.78119E-04    40   0.160E-01    0.192E-02
DAV:   6    -0.125364388207E+02   -0.24750E-04   -0.47544E-05    48   0.405E-02    0.935E-03
DAV:   7    -0.125364818380E+02   -0.43017E-04   -0.25163E-05    32   0.235E-02    0.318E-03
DAV:   8    -0.125365117903E+02   -0.29952E-04   -0.39542E-06    48   0.728E-03    0.214E-03
DAV:   9    -0.125365751685E+02   -0.63378E-04   -0.20951E-05    32   0.141E-02    0.126E-03
DAV:  10    -0.125365996585E+02   -0.24490E-04   -0.33751E-06    48   0.522E-03    0.727E-04
DAV:  11    -0.125366203935E+02   -0.20735E-04   -0.14109E-06    32   0.393E-03    0.421E-04
DAV:  12    -0.125366318926E+02   -0.11499E-04   -0.55464E-07    48   0.259E-03    0.304E-04
DAV:  13    -0.125366381924E+02   -0.62998E-05   -0.34656E-07    32   0.254E-03
   3 F= -.12536638E+02 E0= -.12536638E+02  d E =-.494759E+01
quench:  g(F)=  0.000E+00 g(S)=  0.000E+00 dE (1.order)= 0.000E+00
 bond charge predicted
       N       E                     dE             d eps       ncg     rms          rms(c)
DAV:   1    -0.169229260569E+02   -0.43863E+01   -0.28217E+01    48   0.307E+01    0.296E+00
DAV:   2    -0.166883266066E+02    0.23460E+00   -0.11792E+00    56   0.478E+00    0.135E+00
DAV:   3    -0.166534955041E+02    0.34831E-01   -0.24205E-01    48   0.205E+00    0.514E-01
DAV:   4    -0.166499741014E+02    0.35214E-02   -0.20884E-02    56   0.739E-01    0.174E-01
DAV:   5    -0.166499184597E+02    0.55642E-04   -0.17510E-03    40   0.209E-01    0.437E-02
DAV:   6    -0.166499437610E+02   -0.25301E-04   -0.12432E-04    56   0.664E-02    0.120E-02
DAV:   7    -0.166499931763E+02   -0.49415E-04   -0.27211E-05    32   0.229E-02    0.543E-03
DAV:   8    -0.166500452471E+02   -0.52071E-04   -0.16514E-05    40   0.159E-02    0.326E-03
DAV:   9    -0.166501152107E+02   -0.69964E-04   -0.16796E-05    32   0.146E-02    0.218E-03
DAV:  10    -0.166501689900E+02   -0.53779E-04   -0.91103E-06    32   0.957E-03    0.136E-03
DAV:  11    -0.166501901158E+02   -0.21126E-04   -0.16911E-06    48   0.448E-03    0.628E-04
DAV:  12    -0.166502134577E+02   -0.23342E-04   -0.13874E-06    32   0.422E-03    0.417E-04
DAV:  13    -0.166502272239E+02   -0.13766E-04   -0.12155E-06    32   0.390E-03    0.231E-04
DAV:  14    -0.166502312822E+02   -0.40582E-05   -0.25135E-07    32   0.310E-03
   4 F= -.16650231E+02 E0= -.16650231E+02  d E =-.411359E+01
quench:  g(F)=  0.000E+00 g(S)=  0.000E+00 dE (1.order)= 0.000E+00
 bond charge predicted
       N       E                     dE             d eps       ncg     rms          rms(c)
DAV:   1    -0.178318242551E+02   -0.11816E+01   -0.12131E+01    32   0.197E+01    0.165E+00
DAV:   2    -0.177658769621E+02    0.65947E-01   -0.44137E-01    56   0.274E+00    0.821E-01
DAV:   3    -0.177527322632E+02    0.13145E-01   -0.80943E-02    56   0.114E+00    0.337E-01
DAV:   4    -0.177509066675E+02    0.18256E-02   -0.11478E-02    40   0.512E-01    0.102E-01
DAV:   5    -0.177509409791E+02   -0.34312E-04   -0.58544E-04    40   0.125E-01    0.349E-02
DAV:   6    -0.177509734489E+02   -0.32470E-04   -0.57354E-05    32   0.414E-02    0.699E-03
DAV:   7    -0.177509954821E+02   -0.22033E-04   -0.11278E-05    32   0.144E-02    0.337E-03
DAV:   8    -0.177510138868E+02   -0.18405E-04   -0.55657E-06    32   0.940E-03    0.211E-03
DAV:   9    -0.177510403085E+02   -0.26422E-04   -0.99219E-06    32   0.106E-02    0.154E-03
DAV:  10    -0.177510536656E+02   -0.13357E-04   -0.22705E-06    48   0.492E-03    0.101E-03
DAV:  11    -0.177510677667E+02   -0.14101E-04   -0.15915E-06    32   0.427E-03    0.487E-04
DAV:  12    -0.177510736098E+02   -0.58431E-05   -0.37717E-07    48   0.190E-03
   5 F= -.17751074E+02 E0= -.17751074E+02  d E =-.110084E+01
quench:  g(F)=  0.000E+00 g(S)=  0.000E+00 dE (1.order)= 0.000E+00
 bond charge predicted
       N       E                     dE             d eps       ncg     rms          rms(c)
DAV:   1    -0.180905399184E+02   -0.33947E+00   -0.61417E+00    32   0.138E+01    0.104E+00
DAV:   2    -0.180674780017E+02    0.23062E-01   -0.18731E-01    48   0.180E+00    0.556E-01
DAV:   3    -0.180617848423E+02    0.56932E-02   -0.38316E-02    48   0.731E-01    0.245E-01
DAV:   4    -0.180606919453E+02    0.10929E-02   -0.73295E-03    32   0.389E-01    0.666E-02
DAV:   5    -0.180607174524E+02   -0.25507E-04   -0.28758E-04    48   0.916E-02    0.303E-02
DAV:   6    -0.180607411312E+02   -0.23679E-04   -0.53770E-05    32   0.372E-02    0.505E-03
DAV:   7    -0.180607491881E+02   -0.80569E-05   -0.40029E-06    48   0.950E-03
   6 F= -.18060749E+02 E0= -.18060749E+02  d E =-.309676E+00
quench:  g(F)=  0.000E+00 g(S)=  0.000E+00 dE (1.order)= 0.000E+00
 bond charge predicted
       N       E                     dE             d eps       ncg     rms          rms(c)
DAV:   1    -0.181413707659E+02   -0.80630E-01   -0.20150E+00    32   0.779E+00    0.528E-01
DAV:   2    -0.181365301398E+02    0.48406E-02   -0.43886E-02    40   0.952E-01    0.295E-01
DAV:   3    -0.181347896037E+02    0.17405E-02   -0.12276E-02    40   0.405E-01    0.140E-01
DAV:   4    -0.181344439740E+02    0.34563E-03   -0.29883E-03    40   0.222E-01    0.378E-02
DAV:   5    -0.181344392041E+02    0.47699E-05   -0.12029E-04    40   0.533E-02    0.196E-02
DAV:   6    -0.181344487288E+02   -0.95248E-05   -0.22568E-05    40   0.256E-02
   7 F= -.18134449E+02 E0= -.18134449E+02  d E =-.736995E-01
quench:  g(F)=  0.000E+00 g(S)=  0.000E+00 dE (1.order)= 0.000E+00
 bond charge predicted
       N       E                     dE             d eps       ncg     rms          rms(c)
DAV:   1    -0.181773112101E+02   -0.42872E-01   -0.70898E-01    48   0.447E+00    0.289E-01
DAV:   2    -0.181761091291E+02    0.12021E-02   -0.10872E-02    40   0.516E-01    0.162E-01
DAV:   3    -0.181754833719E+02    0.62576E-03   -0.39447E-03    32   0.254E-01    0.473E-02
DAV:   4    -0.181754785744E+02    0.47975E-05   -0.55573E-04    40   0.872E-02    0.200E-02
DAV:   5    -0.181754878066E+02   -0.92322E-05   -0.36048E-05    48   0.293E-02
   8 F= -.18175488E+02 E0= -.18175488E+02  d E =-.410391E-01
quench:  g(F)=  0.000E+00 g(S)=  0.000E+00 dE (1.order)= 0.000E+00
 bond charge predicted
       N       E                     dE             d eps       ncg     rms          rms(c)
DAV:   1    -0.182028603616E+02   -0.27382E-01   -0.53387E-01    48   0.383E+00    0.267E-01
DAV:   2    -0.182016584426E+02    0.12019E-02   -0.16242E-02    32   0.545E-01    0.152E-01
DAV:   3    -0.182013063428E+02    0.35210E-03   -0.22003E-03    40   0.180E-01    0.687E-02
DAV:   4    -0.182012342757E+02    0.72067E-04   -0.39562E-04    48   0.929E-02    0.174E-02
DAV:   5    -0.182012753395E+02   -0.41064E-04   -0.68617E-05    32   0.367E-02    0.765E-03
DAV:   6    -0.182013094084E+02   -0.34069E-04   -0.91674E-06    48   0.121E-02    0.259E-03
DAV:   7    -0.182013412366E+02   -0.31828E-04   -0.26951E-06    32   0.732E-03    0.128E-03
DAV:   8    -0.182013765634E+02   -0.35327E-04   -0.28779E-06    40   0.652E-03    0.671E-04
DAV:   9    -0.182014059391E+02   -0.29376E-04   -0.27307E-06    32   0.579E-03    0.442E-04
DAV:  10    -0.182014217974E+02   -0.15858E-04   -0.13315E-06    32   0.458E-03    0.276E-04
DAV:  11    -0.182014280797E+02   -0.62822E-05   -0.14132E-07    32   0.220E-03
   9 F= -.18201428E+02 E0= -.18201428E+02  d E =-.259403E-01
quench:  g(F)=  0.000E+00 g(S)=  0.000E+00 dE (1.order)= 0.000E+00
 bond charge predicted
       N       E                     dE             d eps       ncg     rms          rms(c)
DAV:   1    -0.182085448639E+02   -0.71231E-02   -0.17431E-01    32   0.228E+00    0.146E-01
DAV:   2    -0.182083097597E+02    0.23510E-03   -0.50465E-03    32   0.312E-01    0.834E-02
DAV:   3    -0.182082114970E+02    0.98263E-04   -0.60529E-04    40   0.979E-02    0.400E-02
DAV:   4    -0.182081855282E+02    0.25969E-04   -0.15138E-04    32   0.587E-02    0.105E-02
DAV:   5    -0.182081905232E+02   -0.49950E-05   -0.17890E-05    32   0.202E-02
  10 F= -.18208191E+02 E0= -.18208191E+02  d E =-.676244E-02
quench:  g(F)=  0.000E+00 g(S)=  0.000E+00 dE (1.order)= 0.000E+00
 bond charge predicted
       N       E                     dE             d eps       ncg     rms          rms(c)
DAV:   1    -0.182127890045E+02   -0.46035E-02   -0.76954E-02    32   0.151E+00    0.955E-02
DAV:   2    -0.182127300651E+02    0.58939E-04   -0.18496E-03    40   0.183E-01    0.556E-02
DAV:   3    -0.182126904568E+02    0.39608E-04   -0.26195E-04    32   0.569E-02    0.277E-02
DAV:   4    -0.182126837548E+02    0.67020E-05   -0.78614E-05    48   0.416E-02
  11 F= -.18212684E+02 E0= -.18212684E+02  d E =-.449323E-02
quench:  g(F)=  0.000E+00 g(S)=  0.000E+00 dE (1.order)= 0.000E+00
 bond charge predicted
       N       E                     dE             d eps       ncg     rms          rms(c)
DAV:   1    -0.182408286220E+02   -0.28138E-01   -0.10531E+00    32   0.560E+00    0.327E-01
DAV:   2    -0.182409523089E+02   -0.12369E-03   -0.11698E-02    56   0.545E-01    0.183E-01
DAV:   3    -0.182406799828E+02    0.27233E-03   -0.21306E-03    48   0.164E-01    0.553E-02
DAV:   4    -0.182406346444E+02    0.45338E-04   -0.45618E-04    48   0.773E-02    0.203E-02
DAV:   5    -0.182406426440E+02   -0.79996E-05   -0.30056E-05    32   0.258E-02
  12 F= -.18240643E+02 E0= -.18240643E+02  d E =-.279589E-01
quench:  g(F)=  0.000E+00 g(S)=  0.000E+00 dE (1.order)= 0.000E+00
 bond charge predicted
       N       E                     dE             d eps       ncg     rms          rms(c)
DAV:   1    -0.183748992402E+02   -0.13426E+00   -0.19733E+01    32   0.240E+01    0.144E+00
DAV:   2    -0.183722938368E+02    0.26054E-02   -0.31811E-01    40   0.264E+00    0.822E-01
DAV:   3    -0.183658789801E+02    0.64149E-02   -0.41399E-02    40   0.728E-01    0.337E-01
DAV:   4    -0.183650519207E+02    0.82706E-03   -0.11790E-02    48   0.426E-01    0.969E-02
DAV:   5    -0.183651562657E+02   -0.10434E-03   -0.63734E-04    32   0.119E-01    0.529E-02
DAV:   6    -0.183654947067E+02   -0.33844E-03   -0.36293E-04    32   0.904E-02    0.117E-02
DAV:   7    -0.183656865100E+02   -0.19180E-03   -0.39612E-05    48   0.287E-02    0.555E-03
DAV:   8    -0.183659192728E+02   -0.23276E-03   -0.25311E-05    32   0.182E-02    0.319E-03
DAV:   9    -0.183662188005E+02   -0.29953E-03   -0.42673E-05    32   0.215E-02    0.206E-03
DAV:  10    -0.183663848817E+02   -0.16608E-03   -0.26296E-05    32   0.169E-02    0.140E-03
DAV:  11    -0.183664581232E+02   -0.73241E-04   -0.77495E-06    32   0.102E-02    0.124E-03
DAV:  12    -0.183664709801E+02   -0.12857E-04   -0.75756E-07    48   0.406E-03    0.412E-04
DAV:  13    -0.183664860726E+02   -0.15093E-04   -0.10721E-06    32   0.446E-03    0.760E-04
DAV:  14    -0.183664888295E+02   -0.27569E-05   -0.25104E-07    32   0.184E-03
  13 F= -.18366489E+02 E0= -.18366489E+02  d E =-.125846E+00
quench:  g(F)=  0.000E+00 g(S)=  0.000E+00 dE (1.order)= 0.000E+00
 bond charge predicted
       N       E                     dE             d eps       ncg     rms          rms(c)
DAV:   1    -0.185892094311E+02   -0.22272E+00   -0.21301E+01    32   0.253E+01    0.158E+00
DAV:   2    -0.185752447217E+02    0.13965E-01   -0.42729E-01    56   0.272E+00    0.857E-01
DAV:   3    -0.185675934003E+02    0.76513E-02   -0.45399E-02    48   0.736E-01    0.421E-01
DAV:   4    -0.185657740599E+02    0.18193E-02   -0.14747E-02    40   0.470E-01    0.973E-02
DAV:   5    -0.185658180409E+02   -0.43981E-04   -0.69138E-04    32   0.126E-01    0.505E-02
DAV:   6    -0.185660999736E+02   -0.28193E-03   -0.30275E-04    32   0.901E-02    0.112E-02
DAV:   7    -0.185663332398E+02   -0.23327E-03   -0.35330E-05    40   0.281E-02    0.688E-03
DAV:   8    -0.185667203804E+02   -0.38714E-03   -0.53876E-05    32   0.264E-02    0.394E-03
DAV:   9    -0.185671550798E+02   -0.43470E-03   -0.83730E-05    32   0.298E-02    0.290E-03
DAV:  10    -0.185673534021E+02   -0.19832E-03   -0.32663E-05    48   0.187E-02    0.132E-03
DAV:  11    -0.185674415355E+02   -0.88133E-04   -0.75630E-06    32   0.118E-02    0.761E-04
DAV:  12    -0.185674684513E+02   -0.26916E-04   -0.22149E-06    32   0.631E-03    0.514E-04
DAV:  13    -0.185674798994E+02   -0.11448E-04   -0.39031E-07    32   0.247E-03    0.265E-04
DAV:  14    -0.185674856729E+02   -0.57735E-05   -0.25421E-07    32   0.159E-03
  14 F= -.18567486E+02 E0= -.18567486E+02  d E =-.200997E+00
quench:  g(F)=  0.000E+00 g(S)=  0.000E+00 dE (1.order)= 0.000E+00
 bond charge predicted
       N       E                     dE             d eps       ncg     rms          rms(c)
DAV:   1    -0.189258882583E+02   -0.35841E+00   -0.22325E+01    32   0.267E+01    0.149E+00
DAV:   2    -0.189203277925E+02    0.55605E-02   -0.31982E-01    40   0.270E+00    0.757E-01
DAV:   3    -0.189172383269E+02    0.30895E-02   -0.22172E-02    48   0.692E-01    0.278E-01
DAV:   4    -0.189166723319E+02    0.56599E-03   -0.25780E-03    32   0.238E-01    0.799E-02
DAV:   5    -0.189166401280E+02    0.32204E-04   -0.59301E-04    48   0.936E-02    0.240E-02
DAV:   6    -0.189167606861E+02   -0.12056E-03   -0.12973E-04    32   0.450E-02    0.111E-02
DAV:   7    -0.189171500158E+02   -0.38933E-03   -0.67220E-05    32   0.335E-02    0.397E-03
DAV:   8    -0.189174387003E+02   -0.28868E-03   -0.31686E-05    48   0.189E-02    0.296E-03
DAV:   9    -0.189178437009E+02   -0.40500E-03   -0.10139E-04    32   0.316E-02    0.147E-03
DAV:  10    -0.189179473271E+02   -0.10363E-03   -0.11554E-05    48   0.130E-02    0.104E-03
DAV:  11    -0.189179943623E+02   -0.47035E-04   -0.20516E-06    32   0.820E-03    0.567E-04
DAV:  12    -0.189180107686E+02   -0.16406E-04   -0.80716E-07    32   0.413E-03    0.328E-04
DAV:  13    -0.189180248724E+02   -0.14104E-04   -0.93096E-07    32   0.364E-03    0.175E-04
DAV:  14    -0.189180275777E+02   -0.27053E-05   -0.36893E-08    48   0.809E-04
  15 F= -.18918028E+02 E0= -.18918028E+02  d E =-.350542E+00
quench:  g(F)=  0.000E+00 g(S)=  0.000E+00 dE (1.order)= 0.000E+00
 bond charge predicted
       N       E                     dE             d eps       ncg     rms          rms(c)
DAV:   1    -0.188288936051E+02    0.89131E-01   -0.36699E+00    32   0.106E+01    0.616E-01
DAV:   2    -0.188268071689E+02    0.20864E-02   -0.37892E-02    32   0.848E-01    0.332E-01
DAV:   3    -0.188256944795E+02    0.11127E-02   -0.79225E-03    48   0.321E-01    0.130E-01
DAV:   4    -0.188253308607E+02    0.36362E-03   -0.17936E-03    32   0.156E-01    0.322E-02
DAV:   5    -0.188253488813E+02   -0.18021E-04   -0.19311E-04    40   0.571E-02    0.171E-02
DAV:   6    -0.188253785358E+02   -0.29654E-04   -0.30275E-05    32   0.259E-02    0.486E-03
DAV:   7    -0.188254140116E+02   -0.35476E-04   -0.57576E-06    32   0.945E-03    0.279E-03
DAV:   8    -0.188254718448E+02   -0.57833E-04   -0.13497E-05    32   0.128E-02    0.179E-03
DAV:   9    -0.188255158489E+02   -0.44004E-04   -0.10396E-05    32   0.989E-03    0.711E-04
DAV:  10    -0.188255334632E+02   -0.17614E-04   -0.27009E-06    48   0.490E-03    0.494E-04
DAV:  11    -0.188255456577E+02   -0.12194E-04   -0.68894E-07    32   0.290E-03    0.260E-04
DAV:  12    -0.188255500717E+02   -0.44141E-05   -0.11394E-07    32   0.164E-03
  16 F= -.18825550E+02 E0= -.18825550E+02  d E =0.924775E-01
quench:  g(F)=  0.000E+00 g(S)=  0.000E+00 dE (1.order)= 0.000E+00
 bond charge predicted
       N       E                     dE             d eps       ncg     rms          rms(c)
DAV:   1    -0.183878270465E+02    0.43772E+00   -0.68161E+01    32   0.451E+01    0.287E+00
DAV:   2    -0.183627197993E+02    0.25107E-01   -0.17050E+00    48   0.528E+00    0.158E+00
DAV:   3    -0.183380286708E+02    0.24691E-01   -0.26478E-01    56   0.163E+00    0.864E-01
DAV:   4    -0.183325407316E+02    0.54879E-02   -0.60633E-02    32   0.824E-01    0.154E-01
DAV:   5    -0.183325120898E+02    0.28642E-04   -0.22058E-03    48   0.215E-01    0.868E-02
DAV:   6    -0.183326614869E+02   -0.14940E-03   -0.74009E-04    32   0.142E-01    0.205E-02
DAV:   7    -0.183328420707E+02   -0.18058E-03   -0.83294E-05    48   0.391E-02    0.119E-02
DAV:   8    -0.183334611162E+02   -0.61905E-03   -0.21023E-04    32   0.605E-02    0.527E-03
DAV:   9    -0.183338938025E+02   -0.43269E-03   -0.10178E-04    48   0.350E-02    0.417E-03
DAV:  10    -0.183342932795E+02   -0.39948E-03   -0.11862E-04    32   0.326E-02    0.203E-03
DAV:  11    -0.183343817041E+02   -0.88425E-04   -0.81586E-06    56   0.118E-02    0.111E-03
DAV:  12    -0.183344557613E+02   -0.74057E-04   -0.36078E-06    32   0.925E-03    0.824E-04
DAV:  13    -0.183344959915E+02   -0.40230E-04   -0.34857E-06    32   0.663E-03    0.354E-04
DAV:  14    -0.183345061308E+02   -0.10139E-04   -0.44216E-07    32   0.276E-03    0.233E-04
DAV:  15    -0.183345139346E+02   -0.78037E-05   -0.29096E-07    32   0.267E-03
  17 F= -.18334514E+02 E0= -.18334514E+02  d E =0.491036E+00
quench:  g(F)=  0.000E+00 g(S)=  0.000E+00 dE (1.order)= 0.000E+00
 bond charge predicted
       N       E                     dE             d eps       ncg     rms          rms(c)
DAV:   1    -0.187442518886E+02   -0.40975E+00   -0.39463E+01    32   0.343E+01    0.210E+00
DAV:   2    -0.187230145928E+02    0.21237E-01   -0.85899E-01    56   0.383E+00    0.123E+00
DAV:   3    -0.187030499489E+02    0.19965E-01   -0.10220E-01    48   0.109E+00    0.625E-01
DAV:   4    -0.186986904210E+02    0.43595E-02   -0.42187E-02    40   0.794E-01    0.164E-01
DAV:   5    -0.186983817588E+02    0.30866E-03   -0.18682E-03    40   0.202E-01    0.852E-02
DAV:   6    -0.186986623331E+02   -0.28057E-03   -0.10654E-03    32   0.154E-01    0.203E-02
DAV:   7    -0.186989871331E+02   -0.32480E-03   -0.77190E-05    40   0.444E-02    0.122E-02
DAV:   8    -0.186995184767E+02   -0.53134E-03   -0.92257E-05    32   0.371E-02    0.567E-03
DAV:   9    -0.187001534831E+02   -0.63501E-03   -0.12628E-04    40   0.382E-02    0.552E-03
DAV:  10    -0.187005145610E+02   -0.36108E-03   -0.83654E-05    32   0.295E-02    0.195E-03
DAV:  11    -0.187006667768E+02   -0.15222E-03   -0.19497E-05    32   0.169E-02    0.113E-03
DAV:  12    -0.187007006055E+02   -0.33829E-04   -0.23692E-06    48   0.653E-03    0.696E-04
DAV:  13    -0.187007319166E+02   -0.31311E-04   -0.15307E-06    32   0.435E-03    0.465E-04
DAV:  14    -0.187007371641E+02   -0.52475E-05   -0.16672E-07    32   0.128E-03
  18 F= -.18700737E+02 E0= -.18700737E+02  d E =-.366223E+00
quench:  g(F)=  0.000E+00 g(S)=  0.000E+00 dE (1.order)= 0.000E+00
 bond charge predicted
       N       E                     dE             d eps       ncg     rms          rms(c)
DAV:   1    -0.186433922566E+02    0.57340E-01   -0.78350E+00    32   0.156E+01    0.114E+00
DAV:   2    -0.186245295650E+02    0.18863E-01   -0.36089E-01    48   0.224E+00    0.690E-01
DAV:   3    -0.186165956488E+02    0.79339E-02   -0.65924E-02    32   0.827E-01    0.311E-01
DAV:   4    -0.186152085312E+02    0.13871E-02   -0.12697E-02    32   0.543E-01    0.866E-02
DAV:   5    -0.186152547089E+02   -0.46178E-04   -0.89663E-04    48   0.148E-01    0.410E-02
DAV:   6    -0.186152936859E+02   -0.38977E-04   -0.16438E-04    32   0.558E-02    0.830E-03
DAV:   7    -0.186153112437E+02   -0.17558E-04   -0.10125E-05    32   0.154E-02    0.405E-03
DAV:   8    -0.186153406196E+02   -0.29376E-04   -0.93807E-06    32   0.122E-02    0.186E-03
DAV:   9    -0.186153619114E+02   -0.21292E-04   -0.45245E-06    32   0.769E-03    0.131E-03
DAV:  10    -0.186153746541E+02   -0.12743E-04   -0.24517E-06    32   0.531E-03    0.654E-04
DAV:  11    -0.186153825478E+02   -0.78937E-05   -0.96340E-07    32   0.305E-03
  19 F= -.18615383E+02 E0= -.18615383E+02  d E =0.853546E-01
quench:  g(F)=  0.000E+00 g(S)=  0.000E+00 dE (1.order)= 0.000E+00
 bond charge predicted
       N       E                     dE             d eps       ncg     rms          rms(c)
DAV:   1    -0.186943097343E+02   -0.78935E-01   -0.34705E+00    32   0.104E+01    0.751E-01
DAV:   2    -0.186847770782E+02    0.95327E-02   -0.13211E-01    56   0.147E+00    0.432E-01
DAV:   3    -0.186818595888E+02    0.29175E-02   -0.21734E-02    40   0.519E-01    0.200E-01
DAV:   4    -0.186811961547E+02    0.66343E-03   -0.51954E-03    32   0.339E-01    0.539E-02
DAV:   5    -0.186812523788E+02   -0.56224E-04   -0.36932E-04    32   0.968E-02    0.246E-02
DAV:   6    -0.186813126838E+02   -0.60305E-04   -0.57785E-05    48   0.396E-02    0.502E-03
DAV:   7    -0.186813386808E+02   -0.25997E-04   -0.73424E-06    32   0.146E-02    0.273E-03
DAV:   8    -0.186813755755E+02   -0.36895E-04   -0.36806E-06    48   0.857E-03    0.108E-03
DAV:   9    -0.186814046106E+02   -0.29035E-04   -0.17675E-06    32   0.500E-03    0.579E-04
DAV:  10    -0.186814243173E+02   -0.19707E-04   -0.11670E-06    32   0.438E-03    0.392E-04
DAV:  11    -0.186814348604E+02   -0.10543E-04   -0.53290E-07    32   0.285E-03    0.247E-04
DAV:  12    -0.186814382724E+02   -0.34120E-05   -0.11407E-07    32   0.160E-03
  20 F= -.18681438E+02 E0= -.18681438E+02  d E =-.660557E-01
quench:  g(F)=  0.000E+00 g(S)=  0.000E+00 dE (1.order)= 0.000E+00
 bond charge predicted
       N       E                     dE             d eps       ncg     rms          rms(c)
DAV:   1    -0.186427635030E+02    0.38671E-01   -0.38390E-01    32   0.342E+00    0.210E-01
DAV:   2    -0.186425620057E+02    0.20150E-03   -0.57835E-03    48   0.308E-01    0.109E-01
DAV:   3    -0.186424262053E+02    0.13580E-03   -0.12813E-03    48   0.128E-01    0.583E-02
DAV:   4    -0.186423572284E+02    0.68977E-04   -0.34191E-04    32   0.649E-02    0.119E-02
DAV:   5    -0.186423602211E+02   -0.29927E-05   -0.20672E-05    32   0.202E-02
  21 F= -.18642360E+02 E0= -.18642360E+02  d E =0.390781E-01
quench:  g(F)=  0.000E+00 g(S)=  0.000E+00 dE (1.order)= 0.000E+00
 bond charge predicted
       N       E                     dE             d eps       ncg     rms          rms(c)
DAV:   1    -0.186147071372E+02    0.27650E-01   -0.30370E-01    32   0.299E+00    0.171E-01
DAV:   2    -0.186146284691E+02    0.78668E-04   -0.33178E-03    48   0.300E-01    0.954E-02
DAV:   3    -0.186144615161E+02    0.16695E-03   -0.82370E-04    40   0.125E-01    0.196E-02
DAV:   4    -0.186144629778E+02   -0.14616E-05   -0.37796E-05    32   0.312E-02
  22 F= -.18614463E+02 E0= -.18614463E+02  d E =0.278972E-01
quench:  g(F)=  0.000E+00 g(S)=  0.000E+00 dE (1.order)= 0.000E+00
 bond charge predicted
       N       E                     dE             d eps       ncg     rms          rms(c)
DAV:   1    -0.185590662192E+02    0.55395E-01   -0.75800E-01    32   0.477E+00    0.306E-01
DAV:   2    -0.185584771569E+02    0.58906E-03   -0.19272E-02    32   0.553E-01    0.153E-01
DAV:   3    -0.185582505461E+02    0.22661E-03   -0.20910E-03    48   0.164E-01    0.821E-02
DAV:   4    -0.185581010052E+02    0.14954E-03   -0.40794E-04    32   0.975E-02    0.167E-02
DAV:   5    -0.185581288633E+02   -0.27858E-04   -0.38983E-05    32   0.284E-02    0.851E-03
DAV:   6    -0.185581698915E+02   -0.41028E-04   -0.10162E-05    32   0.171E-02    0.185E-03
DAV:   7    -0.185581965220E+02   -0.26630E-04   -0.21668E-06    48   0.547E-03    0.144E-03
DAV:   8    -0.185582633514E+02   -0.66829E-04   -0.15770E-05    32   0.132E-02    0.847E-04
DAV:   9    -0.185582850086E+02   -0.21657E-04   -0.24092E-06    48   0.474E-03    0.471E-04
DAV:  10    -0.185582970869E+02   -0.12078E-04   -0.10199E-06    32   0.327E-03    0.247E-04
DAV:  11    -0.185583015518E+02   -0.44649E-05   -0.74637E-08    32   0.146E-03
  23 F= -.18558302E+02 E0= -.18558302E+02  d E =0.561614E-01
quench:  g(F)=  0.000E+00 g(S)=  0.000E+00 dE (1.order)= 0.000E+00
 bond charge predicted
       N       E                     dE             d eps       ncg     rms          rms(c)
DAV:   1    -0.185553323529E+02    0.29647E-02   -0.74146E-02    32   0.149E+00    0.991E-02
DAV:   2    -0.185552304157E+02    0.10194E-03   -0.11509E-03    56   0.160E-01    0.553E-02
DAV:   3    -0.185551671274E+02    0.63288E-04   -0.36026E-04    32   0.699E-02    0.241E-02
DAV:   4    -0.185551558903E+02    0.11237E-04   -0.86294E-05    40   0.346E-02    0.598E-03
DAV:   5    -0.185551568619E+02   -0.97161E-06   -0.38736E-06    48   0.906E-03
  24 F= -.18555157E+02 E0= -.18555157E+02  d E =0.314469E-02
quench:  g(F)=  0.000E+00 g(S)=  0.000E+00 dE (1.order)= 0.000E+00
 bond charge predicted
       N       E                     dE             d eps       ncg     rms          rms(c)
DAV:   1    -0.185234124016E+02    0.31743E-01   -0.34710E-01    32   0.323E+00    0.214E-01
DAV:   2    -0.185231237561E+02    0.28865E-03   -0.67577E-03    40   0.321E-01    0.114E-01
DAV:   3    -0.185229629765E+02    0.16078E-03   -0.16110E-03    48   0.135E-01    0.627E-02
DAV:   4    -0.185228674715E+02    0.95505E-04   -0.38736E-04    32   0.751E-02    0.113E-02
DAV:   5    -0.185228729347E+02   -0.54633E-05   -0.19791E-05    32   0.202E-02
  25 F= -.18522873E+02 E0= -.18522873E+02  d E =0.322839E-01
quench:  g(F)=  0.000E+00 g(S)=  0.000E+00 dE (1.order)= 0.000E+00
 bond charge predicted
       N       E                     dE             d eps       ncg     rms          rms(c)
DAV:   1    -0.184733729786E+02    0.49494E-01   -0.60975E-01    32   0.429E+00    0.293E-01
DAV:   2    -0.184726782664E+02    0.69471E-03   -0.13699E-02    32   0.445E-01    0.143E-01
DAV:   3    -0.184724583412E+02    0.21993E-03   -0.17392E-03    40   0.143E-01    0.757E-02
DAV:   4    -0.184723123912E+02    0.14595E-03   -0.37526E-04    32   0.891E-02    0.154E-02
DAV:   5    -0.184723281862E+02   -0.15795E-04   -0.40945E-05    32   0.261E-02    0.790E-03
DAV:   6    -0.184723527520E+02   -0.24566E-04   -0.77156E-06    32   0.137E-02    0.206E-03
DAV:   7    -0.184723768353E+02   -0.24083E-04   -0.25004E-06    32   0.576E-03    0.132E-03
DAV:   8    -0.184724221151E+02   -0.45280E-04   -0.12647E-05    32   0.115E-02    0.836E-04
DAV:   9    -0.184724387172E+02   -0.16602E-04   -0.25467E-06    48   0.468E-03    0.400E-04
DAV:  10    -0.184724480701E+02   -0.93529E-05   -0.73115E-07    32   0.269E-03
  26 F= -.18472448E+02 E0= -.18472448E+02  d E =0.504249E-01
quench:  g(F)=  0.000E+00 g(S)=  0.000E+00 dE (1.order)= 0.000E+00
 bond charge predicted
       N       E                     dE             d eps       ncg     rms          rms(c)
DAV:   1    -0.183998748905E+02    0.72564E-01   -0.12356E+00    32   0.610E+00    0.471E-01
DAV:   2    -0.183967080285E+02    0.31669E-02   -0.48174E-02    40   0.735E-01    0.243E-01
DAV:   3    -0.183957736365E+02    0.93439E-03   -0.71612E-03    56   0.277E-01    0.125E-01
DAV:   4    -0.183954263287E+02    0.34731E-03   -0.17633E-03    32   0.182E-01    0.243E-02
DAV:   5    -0.183954428959E+02   -0.16567E-04   -0.94773E-05    48   0.486E-02    0.118E-02
DAV:   6    -0.183954706027E+02   -0.27707E-04   -0.18128E-05    32   0.219E-02    0.299E-03
DAV:   7    -0.183954932516E+02   -0.22649E-04   -0.26333E-06    32   0.642E-03    0.195E-03
DAV:   8    -0.183955412353E+02   -0.47984E-04   -0.13899E-05    32   0.132E-02    0.120E-03
DAV:   9    -0.183955694107E+02   -0.28175E-04   -0.74610E-06    48   0.842E-03    0.956E-04
DAV:  10    -0.183955812743E+02   -0.11864E-04   -0.19816E-06    32   0.433E-03    0.443E-04
DAV:  11    -0.183955896356E+02   -0.83613E-05   -0.40360E-07    32   0.245E-03
  27 F= -.18395590E+02 E0= -.18395590E+02  d E =0.768584E-01
quench:  g(F)=  0.000E+00 g(S)=  0.000E+00 dE (1.order)= 0.000E+00
 bond charge predicted
       N       E                     dE             d eps       ncg     rms          rms(c)
DAV:   1    -0.184641990082E+02   -0.68618E-01   -0.15313E+00    32   0.677E+00    0.472E-01
DAV:   2    -0.184616587728E+02    0.25402E-02   -0.34934E-02    48   0.728E-01    0.260E-01
DAV:   3    -0.184605757477E+02    0.10830E-02   -0.67472E-03    48   0.277E-01    0.134E-01
DAV:   4    -0.184601327944E+02    0.44295E-03   -0.22503E-03    40   0.198E-01    0.284E-02
DAV:   5    -0.184601597899E+02   -0.26996E-04   -0.10616E-04    32   0.506E-02    0.136E-02
DAV:   6    -0.184602097611E+02   -0.49971E-04   -0.23713E-05    32   0.249E-02    0.346E-03
DAV:   7    -0.184602372004E+02   -0.27439E-04   -0.19171E-06    32   0.606E-03    0.223E-03
DAV:   8    -0.184603032561E+02   -0.66056E-04   -0.97984E-06    32   0.103E-02    0.131E-03
DAV:   9    -0.184603442635E+02   -0.41007E-04   -0.42276E-06    48   0.629E-03    0.763E-04
DAV:  10    -0.184603741354E+02   -0.29872E-04   -0.31442E-06    32   0.585E-03    0.474E-04
DAV:  11    -0.184603874550E+02   -0.13320E-04   -0.65929E-07    48   0.322E-03    0.283E-04
DAV:  12    -0.184603917762E+02   -0.43212E-05   -0.13000E-07    32   0.170E-03
  28 F= -.18460392E+02 E0= -.18460392E+02  d E =-.648021E-01
quench:  g(F)=  0.000E+00 g(S)=  0.000E+00 dE (1.order)= 0.000E+00
 bond charge predicted
       N       E                     dE             d eps       ncg     rms          rms(c)
DAV:   1    -0.184759868752E+02   -0.15599E-01   -0.50646E-02    32   0.125E+00    0.856E-02
DAV:   2    -0.184759112017E+02    0.75673E-04   -0.19262E-03    32   0.171E-01    0.415E-02
DAV:   3    -0.184758915062E+02    0.19696E-04   -0.14866E-04    48   0.478E-02    0.235E-02
DAV:   4    -0.184758851704E+02    0.63359E-05   -0.31274E-05    32   0.347E-02
  29 F= -.18475885E+02 E0= -.18475885E+02  d E =-.154934E-01
quench:  g(F)=  0.000E+00 g(S)=  0.000E+00 dE (1.order)= 0.000E+00
 bond charge predicted
       N       E                     dE             d eps       ncg     rms          rms(c)
DAV:   1    -0.184679229047E+02    0.79686E-02   -0.42799E-02    32   0.114E+00    0.669E-02
DAV:   2    -0.184679232078E+02   -0.30311E-06   -0.45898E-04    40   0.111E-01    0.374E-02
DAV:   3    -0.184679025412E+02    0.20667E-04   -0.13008E-04    48   0.520E-02    0.799E-03
DAV:   4    -0.184679029598E+02   -0.41863E-06   -0.79612E-06    32   0.134E-02
  30 F= -.18467903E+02 E0= -.18467903E+02  d E =0.798221E-02
quench:  g(F)=  0.000E+00 g(S)=  0.000E+00 dE (1.order)= 0.000E+00
 bond charge predicted
       N       E                     dE             d eps       ncg     rms          rms(c)
DAV:   1    -0.184548695073E+02    0.13033E-01   -0.54319E-02    32   0.127E+00    0.790E-02
DAV:   2    -0.184548587621E+02    0.10745E-04   -0.10510E-03    32   0.140E-01    0.412E-02
DAV:   3    -0.184548407494E+02    0.18013E-04   -0.17970E-04    48   0.487E-02    0.217E-02
DAV:   4    -0.184548287196E+02    0.12030E-04   -0.42323E-05    32   0.275E-02    0.443E-03
DAV:   5    -0.184548298154E+02   -0.10958E-05   -0.23049E-06    32   0.777E-03
  31 F= -.18454830E+02 E0= -.18454830E+02  d E =0.130731E-01
quench:  g(F)=  0.000E+00 g(S)=  0.000E+00 dE (1.order)= 0.000E+00
 bond charge predicted
       N       E                     dE             d eps       ncg     rms          rms(c)
DAV:   1    -0.184306438978E+02    0.24185E-01   -0.15735E-01    32   0.217E+00    0.137E-01
DAV:   2    -0.184305978860E+02    0.46012E-04   -0.30445E-03    32   0.236E-01    0.702E-02
DAV:   3    -0.184305331772E+02    0.64709E-04   -0.53003E-04    48   0.832E-02    0.375E-02
DAV:   4    -0.184304999254E+02    0.33252E-04   -0.12463E-04    32   0.452E-02    0.766E-03
DAV:   5    -0.184305037572E+02   -0.38317E-05   -0.65152E-06    32   0.130E-02
  32 F= -.18430504E+02 E0= -.18430504E+02  d E =0.243261E-01
quench:  g(F)=  0.000E+00 g(S)=  0.000E+00 dE (1.order)= 0.000E+00
 bond charge predicted
       N       E                     dE             d eps       ncg     rms          rms(c)
DAV:   1    -0.182886458129E+02    0.14185E+00   -0.42478E+00    32   0.112E+01    0.727E-01
DAV:   2    -0.182838338450E+02    0.48120E-02   -0.13775E-01    40   0.154E+00    0.414E-01
DAV:   3    -0.182818619106E+02    0.19719E-02   -0.15194E-02    48   0.447E-01    0.215E-01
DAV:   4    -0.182812144932E+02    0.64742E-03   -0.41245E-03    32   0.295E-01    0.421E-02
DAV:   5    -0.182813250863E+02   -0.11059E-03   -0.33944E-04    32   0.940E-02    0.218E-02
DAV:   6    -0.182814603080E+02   -0.13522E-03   -0.53591E-05    32   0.419E-02    0.518E-03
DAV:   7    -0.182815437089E+02   -0.83401E-04   -0.99574E-06    32   0.133E-02    0.292E-03
DAV:   8    -0.182816976411E+02   -0.15393E-03   -0.28251E-05    32   0.196E-02    0.203E-03
DAV:   9    -0.182817685042E+02   -0.70863E-04   -0.86393E-06    32   0.993E-03    0.106E-03
DAV:  10    -0.182818171012E+02   -0.48597E-04   -0.74506E-06    32   0.927E-03    0.584E-04
DAV:  11    -0.182818332954E+02   -0.16194E-04   -0.46190E-07    32   0.310E-03    0.368E-04
DAV:  12    -0.182818429532E+02   -0.96578E-05   -0.22091E-07    32   0.262E-03
  33 F= -.18281843E+02 E0= -.18281843E+02  d E =0.148661E+00
quench:  g(F)=  0.000E+00 g(S)=  0.000E+00 dE (1.order)= 0.000E+00
 bond charge predicted
       N       E                     dE             d eps       ncg     rms          rms(c)
DAV:   1    -0.184240765398E+02   -0.14224E+00   -0.31403E+00    32   0.967E+00    0.623E-01
DAV:   2    -0.184201434931E+02    0.39330E-02   -0.97988E-02    48   0.127E+00    0.346E-01
DAV:   3    -0.184189001494E+02    0.12433E-02   -0.10741E-02    48   0.390E-01    0.178E-01
DAV:   4    -0.184183912081E+02    0.50894E-03   -0.21948E-03    32   0.228E-01    0.362E-02
DAV:   5    -0.184184478606E+02   -0.56653E-04   -0.28731E-04    32   0.808E-02    0.178E-02
DAV:   6    -0.184185168437E+02   -0.68983E-04   -0.36415E-05    32   0.301E-02    0.525E-03
DAV:   7    -0.184185799237E+02   -0.63080E-04   -0.86070E-06    32   0.124E-02    0.251E-03
DAV:   8    -0.184186910454E+02   -0.11112E-03   -0.16044E-05    32   0.134E-02    0.140E-03
DAV:   9    -0.184187646881E+02   -0.73643E-04   -0.99010E-06    48   0.100E-02    0.945E-04
DAV:  10    -0.184188096639E+02   -0.44976E-04   -0.49599E-06    32   0.756E-03    0.443E-04
DAV:  11    -0.184188261204E+02   -0.16456E-04   -0.54318E-07    32   0.396E-03    0.311E-04
DAV:  12    -0.184188305855E+02   -0.44651E-05   -0.13226E-07    32   0.202E-03
  34 F= -.18418831E+02 E0= -.18418831E+02  d E =-.136988E+00
quench:  g(F)=  0.000E+00 g(S)=  0.000E+00 dE (1.order)= 0.000E+00
 bond charge predicted
       N       E                     dE             d eps       ncg     rms          rms(c)
DAV:   1    -0.185613722129E+02   -0.14255E+00   -0.91911E+00    32   0.166E+01    0.996E-01
DAV:   2    -0.185542285593E+02    0.71437E-02   -0.18992E-01    48   0.190E+00    0.534E-01
DAV:   3    -0.185520304729E+02    0.21981E-02   -0.21146E-02    48   0.552E-01    0.268E-01
DAV:   4    -0.185511870450E+02    0.84343E-03   -0.54509E-03    32   0.306E-01    0.609E-02
DAV:   5    -0.185512090438E+02   -0.21999E-04   -0.57687E-04    40   0.113E-01    0.276E-02
DAV:   6    -0.185512778438E+02   -0.68800E-04   -0.72198E-05    32   0.492E-02    0.642E-03
DAV:   7    -0.185514091385E+02   -0.13129E-03   -0.13968E-05    48   0.153E-02    0.402E-03
DAV:   8    -0.185516508791E+02   -0.24174E-03   -0.41938E-05    32   0.226E-02    0.246E-03
DAV:   9    -0.185517722071E+02   -0.12133E-03   -0.11969E-05    48   0.107E-02    0.168E-03
DAV:  10    -0.185518836443E+02   -0.11144E-03   -0.16972E-05    32   0.136E-02    0.990E-04
DAV:  11    -0.185519286831E+02   -0.45039E-04   -0.25085E-06    32   0.736E-03    0.448E-04
DAV:  12    -0.185519509835E+02   -0.22300E-04   -0.81803E-07    32   0.537E-03    0.397E-04
DAV:  13    -0.185519629028E+02   -0.11919E-04   -0.62932E-07    32   0.340E-03    0.231E-04
DAV:  14    -0.185519656188E+02   -0.27160E-05   -0.36936E-08    32   0.787E-04
  35 F= -.18551966E+02 E0= -.18551966E+02  d E =-.133135E+00
quench:  g(F)=  0.000E+00 g(S)=  0.000E+00 dE (1.order)= 0.000E+00
 bond charge predicted
       N       E                     dE             d eps       ncg     rms          rms(c)
DAV:   1    -0.184730346184E+02    0.78928E-01   -0.49611E+00    32   0.122E+01    0.734E-01
DAV:   2    -0.184700046322E+02    0.30300E-02   -0.11929E-01    40   0.148E+00    0.396E-01
DAV:   3    -0.184686208871E+02    0.13837E-02   -0.11299E-02    48   0.408E-01    0.209E-01
DAV:   4    -0.184681004490E+02    0.52044E-03   -0.34726E-03    32   0.268E-01    0.469E-02
DAV:   5    -0.184681535885E+02   -0.53140E-04   -0.28648E-04    32   0.820E-02    0.240E-02
DAV:   6    -0.184682625418E+02   -0.10895E-03   -0.66678E-05    32   0.457E-02    0.497E-03
DAV:   7    -0.184683273061E+02   -0.64764E-04   -0.91742E-06    32   0.125E-02    0.312E-03
DAV:   8    -0.184684922177E+02   -0.16491E-03   -0.37079E-05    32   0.223E-02    0.160E-03
DAV:   9    -0.184685513348E+02   -0.59117E-04   -0.62953E-06    48   0.810E-03    0.102E-03
DAV:  10    -0.184686066428E+02   -0.55308E-04   -0.88988E-06    32   0.983E-03    0.577E-04
DAV:  11    -0.184686226944E+02   -0.16052E-04   -0.49634E-07    40   0.297E-03    0.354E-04
DAV:  12    -0.184686330675E+02   -0.10373E-04   -0.26070E-07    32   0.266E-03    0.291E-04
DAV:  13    -0.184686379048E+02   -0.48373E-05   -0.25050E-07    32   0.209E-03
  36 F= -.18468638E+02 E0= -.18468638E+02  d E =0.833277E-01
quench:  g(F)=  0.000E+00 g(S)=  0.000E+00 dE (1.order)= 0.000E+00
 bond charge predicted
       N       E                     dE             d eps       ncg     rms          rms(c)
DAV:   1    -0.182970596644E+02    0.17157E+00   -0.94847E+00    40   0.161E+01    0.111E+00
DAV:   2    -0.182806062620E+02    0.16453E-01   -0.15392E-01    48   0.194E+00    0.657E-01
DAV:   3    -0.182708405436E+02    0.97657E-02   -0.49598E-02    48   0.912E-01    0.119E-01
DAV:   4    -0.182711022982E+02   -0.26175E-03   -0.37578E-03    32   0.266E-01    0.659E-02
DAV:   5    -0.182712300149E+02   -0.12772E-03   -0.46060E-04    32   0.872E-02    0.340E-02
DAV:   6    -0.182714838627E+02   -0.25385E-03   -0.12451E-04    32   0.571E-02    0.910E-03
DAV:   7    -0.182716416725E+02   -0.15781E-03   -0.18809E-05    48   0.181E-02    0.451E-03
DAV:   8    -0.182718352443E+02   -0.19357E-03   -0.24595E-05    32   0.192E-02    0.205E-03
DAV:   9    -0.182719321982E+02   -0.96954E-04   -0.63651E-06    48   0.923E-03    0.173E-03
DAV:  10    -0.182720592217E+02   -0.12702E-03   -0.17784E-05    32   0.155E-02    0.119E-03
DAV:  11    -0.182720780023E+02   -0.18781E-04   -0.11166E-06    48   0.478E-03    0.667E-04
DAV:  12    -0.182720987995E+02   -0.20797E-04   -0.94968E-07    32   0.425E-03    0.352E-04
DAV:  13    -0.182721042261E+02   -0.54265E-05   -0.33104E-07    48   0.237E-03
  37 F= -.18272104E+02 E0= -.18272104E+02  d E =0.196534E+00
quench:  g(F)=  0.000E+00 g(S)=  0.000E+00 dE (1.order)= 0.000E+00
 bond charge predicted
       N       E                     dE             d eps       ncg     rms          rms(c)
DAV:   1    -0.185425113262E+02   -0.27041E+00   -0.84126E+00    32   0.154E+01    0.106E+00
DAV:   2    -0.185262971096E+02    0.16214E-01   -0.15944E-01    32   0.182E+00    0.587E-01
DAV:   3    -0.185207181113E+02    0.55790E-02   -0.32599E-02    56   0.713E-01    0.190E-01
DAV:   4    -0.185203839861E+02    0.33413E-03   -0.49815E-03    32   0.272E-01    0.674E-02
DAV:   5    -0.185204422925E+02   -0.58306E-04   -0.73380E-04    40   0.121E-01    0.305E-02
DAV:   6    -0.185205568245E+02   -0.11453E-03   -0.87074E-05    40   0.506E-02    0.679E-03
DAV:   7    -0.185206546729E+02   -0.97848E-04   -0.15244E-05    32   0.153E-02    0.361E-03
DAV:   8    -0.185207764243E+02   -0.12175E-03   -0.14086E-05    32   0.134E-02    0.186E-03
DAV:   9    -0.185208560243E+02   -0.79600E-04   -0.62598E-06    48   0.785E-03    0.115E-03
DAV:  10    -0.185209509603E+02   -0.94936E-04   -0.16225E-05    32   0.133E-02    0.108E-03
DAV:  11    -0.185209783284E+02   -0.27368E-04   -0.13674E-06    32   0.595E-03    0.345E-04
DAV:  12    -0.185209881790E+02   -0.98506E-05   -0.40997E-07    32   0.352E-03
  38 F= -.18520988E+02 E0= -.18520988E+02  d E =-.248884E+00
quench:  g(F)=  0.000E+00 g(S)=  0.000E+00 dE (1.order)= 0.000E+00
 bond charge predicted
       N       E                     dE             d eps       ncg     rms          rms(c)
DAV:   1    -0.185042407690E+02    0.16738E-01   -0.89388E-02    32   0.164E+00    0.117E-01
DAV:   2    -0.185040708841E+02    0.16988E-03   -0.24597E-03    56   0.177E-01    0.629E-02
DAV:   3    -0.185040108633E+02    0.60021E-04   -0.53256E-04    40   0.788E-02    0.347E-02
DAV:   4    -0.185039817148E+02    0.29149E-04   -0.13600E-04    32   0.470E-02    0.656E-03
DAV:   5    -0.185039836024E+02   -0.18876E-05   -0.72737E-06    48   0.125E-02
  39 F= -.18503984E+02 E0= -.18503984E+02  d E =0.170046E-01
quench:  g(F)=  0.000E+00 g(S)=  0.000E+00 dE (1.order)= 0.000E+00
 bond charge predicted
       N       E                     dE             d eps       ncg     rms          rms(c)
DAV:   1    -0.184740728325E+02    0.29909E-01   -0.69032E-01    48   0.454E+00    0.248E-01
DAV:   2    -0.184736871591E+02    0.38567E-03   -0.97946E-03    56   0.470E-01    0.146E-01
DAV:   3    -0.184733713788E+02    0.31578E-03   -0.15732E-03    48   0.163E-01    0.605E-02
DAV:   4    -0.184733100327E+02    0.61346E-04   -0.57907E-04    32   0.903E-02    0.184E-02
DAV:   5    -0.184733278095E+02   -0.17777E-04   -0.50712E-05    32   0.302E-02    0.883E-03
DAV:   6    -0.184733477136E+02   -0.19904E-04   -0.73225E-06    48   0.144E-02    0.207E-03
DAV:   7    -0.184733653184E+02   -0.17605E-04   -0.20908E-06    32   0.524E-03    0.125E-03
DAV:   8    -0.184733879130E+02   -0.22595E-04   -0.41557E-06    32   0.709E-03    0.764E-04
DAV:   9    -0.184734039347E+02   -0.16022E-04   -0.39766E-06    32   0.644E-03    0.420E-04
DAV:  10    -0.184734086030E+02   -0.46682E-05   -0.43537E-07    48   0.213E-03
  40 F= -.18473409E+02 E0= -.18473409E+02  d E =0.305750E-01
quench:  g(F)=  0.000E+00 g(S)=  0.000E+00 dE (1.order)= 0.000E+00
 bond charge predicted
       N       E                     dE             d eps       ncg     rms          rms(c)
DAV:   1    -0.185001510139E+02   -0.26747E-01   -0.17568E+00    32   0.743E+00    0.430E-01
DAV:   2    -0.184995834708E+02    0.56754E-03   -0.32606E-02    48   0.868E-01    0.251E-01
DAV:   3    -0.184988610337E+02    0.72244E-03   -0.65156E-03    40   0.281E-01    0.121E-01
DAV:   4    -0.184986722091E+02    0.18882E-03   -0.22227E-03    32   0.183E-01    0.412E-02
DAV:   5    -0.184986565239E+02    0.15685E-04   -0.17311E-04    32   0.590E-02    0.168E-02
DAV:   6    -0.184986665380E+02   -0.10014E-04   -0.36111E-05    32   0.276E-02    0.486E-03
DAV:   7    -0.184986753176E+02   -0.87796E-05   -0.49945E-06    48   0.938E-03
  41 F= -.18498675E+02 E0= -.18498675E+02  d E =-.252667E-01
quench:  g(F)=  0.000E+00 g(S)=  0.000E+00 dE (1.order)= 0.000E+00
 bond charge predicted
       N       E                     dE             d eps       ncg     rms          rms(c)
DAV:   1    -0.185145004223E+02   -0.15834E-01   -0.93293E-01    32   0.532E+00    0.402E-01
DAV:   2    -0.185112556807E+02    0.32447E-02   -0.37459E-02    48   0.748E-01    0.223E-01
DAV:   3    -0.185103760925E+02    0.87959E-03   -0.60640E-03    32   0.283E-01    0.990E-02
DAV:   4    -0.185101762607E+02    0.19983E-03   -0.13521E-03    40   0.179E-01    0.277E-02
DAV:   5    -0.185101955179E+02   -0.19257E-04   -0.94038E-05    32   0.506E-02    0.143E-02
DAV:   6    -0.185102256964E+02   -0.30178E-04   -0.22787E-05    40   0.191E-02    0.296E-03
DAV:   7    -0.185102368450E+02   -0.11149E-04   -0.19801E-06    56   0.623E-03    0.144E-03
DAV:   8    -0.185102582197E+02   -0.21375E-04   -0.16259E-06    32   0.475E-03    0.704E-04
DAV:   9    -0.185102703984E+02   -0.12179E-04   -0.70711E-07    48   0.307E-03    0.622E-04
DAV:  10    -0.185102812019E+02   -0.10803E-04   -0.91501E-07    32   0.342E-03    0.312E-04
DAV:  11    -0.185102848048E+02   -0.36030E-05   -0.17440E-07    32   0.163E-03
  42 F= -.18510285E+02 E0= -.18510285E+02  d E =-.116095E-01
quench:  g(F)=  0.000E+00 g(S)=  0.000E+00 dE (1.order)= 0.000E+00
 bond charge predicted
       N       E                     dE             d eps       ncg     rms          rms(c)
DAV:   1    -0.184911639541E+02    0.19117E-01   -0.30630E-01    32   0.310E+00    0.158E-01
DAV:   2    -0.184913365268E+02   -0.17257E-03   -0.39982E-03    48   0.317E-01    0.912E-02
DAV:   3    -0.184912458121E+02    0.90715E-04   -0.28933E-04    32   0.861E-02    0.313E-02
DAV:   4    -0.184912327561E+02    0.13056E-04   -0.58828E-05    32   0.390E-02    0.102E-02
DAV:   5    -0.184912357745E+02   -0.30184E-05   -0.15369E-05    32   0.144E-02
  43 F= -.18491236E+02 E0= -.18491236E+02  d E =0.190490E-01
quench:  g(F)=  0.000E+00 g(S)=  0.000E+00 dE (1.order)= 0.000E+00
 bond charge predicted
       N       E                     dE             d eps       ncg     rms          rms(c)
DAV:   1    -0.183990139482E+02    0.92219E-01   -0.25908E+00    32   0.881E+00    0.669E-01
DAV:   2    -0.183918012049E+02    0.72127E-02   -0.11579E-01    48   0.109E+00    0.347E-01
DAV:   3    -0.183900147180E+02    0.17865E-02   -0.16541E-02    40   0.430E-01    0.180E-01
DAV:   4    -0.183894669988E+02    0.54772E-03   -0.35690E-03    32   0.272E-01    0.443E-02
DAV:   5    -0.183894864849E+02   -0.19486E-04   -0.46511E-04    48   0.962E-02    0.194E-02
DAV:   6    -0.183895549047E+02   -0.68420E-04   -0.56550E-05    32   0.373E-02    0.534E-03
DAV:   7    -0.183896115017E+02   -0.56597E-04   -0.70887E-06    32   0.112E-02    0.318E-03
DAV:   8    -0.183897323801E+02   -0.12088E-03   -0.31747E-05    32   0.201E-02    0.203E-03
DAV:   9    -0.183898092464E+02   -0.76866E-04   -0.19827E-05    32   0.145E-02    0.161E-03
DAV:  10    -0.183898353055E+02   -0.26059E-04   -0.44191E-06    48   0.656E-03    0.105E-03
DAV:  11    -0.183898579184E+02   -0.22613E-04   -0.13107E-06    32   0.415E-03    0.513E-04
DAV:  12    -0.183898669113E+02   -0.89929E-05   -0.20484E-07    48   0.225E-03
  44 F= -.18389867E+02 E0= -.18389867E+02  d E =0.101369E+00
quench:  g(F)=  0.000E+00 g(S)=  0.000E+00 dE (1.order)= 0.000E+00
 bond charge predicted
       N       E                     dE             d eps       ncg     rms          rms(c)
DAV:   1    -0.184481023834E+02   -0.58244E-01   -0.13897E+00    32   0.632E+00    0.460E-01
DAV:   2    -0.184444545286E+02    0.36479E-02   -0.48182E-02    48   0.765E-01    0.247E-01
DAV:   3    -0.184432877665E+02    0.11668E-02   -0.64376E-03    48   0.283E-01    0.129E-01
DAV:   4    -0.184428057683E+02    0.48200E-03   -0.26103E-03    32   0.229E-01    0.325E-02
DAV:   5    -0.184428446989E+02   -0.38931E-04   -0.25715E-04    48   0.772E-02    0.153E-02
DAV:   6    -0.184428900624E+02   -0.45363E-04   -0.22302E-05    32   0.253E-02    0.332E-03
DAV:   7    -0.184429334355E+02   -0.43373E-04   -0.32420E-06    32   0.715E-03    0.215E-03
DAV:   8    -0.184430141763E+02   -0.80741E-04   -0.10909E-05    32   0.108E-02    0.140E-03
DAV:   9    -0.184430558415E+02   -0.41665E-04   -0.28253E-06    48   0.561E-03    0.880E-04
DAV:  10    -0.184430958053E+02   -0.39964E-04   -0.49326E-06    32   0.744E-03    0.738E-04
DAV:  11    -0.184431096443E+02   -0.13839E-04   -0.75485E-07    48   0.369E-03    0.457E-04
DAV:  12    -0.184431156389E+02   -0.59945E-05   -0.20927E-07    32   0.222E-03
  45 F= -.18443116E+02 E0= -.18443116E+02  d E =-.532487E-01
quench:  g(F)=  0.000E+00 g(S)=  0.000E+00 dE (1.order)= 0.000E+00
 bond charge predicted
       N       E                     dE             d eps       ncg     rms          rms(c)
DAV:   1    -0.173740265924E+02    0.10691E+01   -0.95979E+01    32   0.535E+01    0.384E+00
DAV:   2    -0.172778390748E+02    0.96188E-01   -0.51254E+00    40   0.749E+00    0.302E+00
DAV:   3    -0.171306289342E+02    0.14721E+00   -0.18247E+00    32   0.356E+00    0.117E+00
DAV:   4    -0.171164702905E+02    0.14159E-01   -0.20379E-01    32   0.193E+00    0.363E-01
DAV:   5    -0.171171561493E+02   -0.68586E-03   -0.10513E-02    40   0.504E-01    0.181E-01
DAV:   6    -0.171172169205E+02   -0.60771E-04   -0.31964E-03    32   0.220E-01    0.342E-02
DAV:   7    -0.171172657096E+02   -0.48789E-04   -0.19989E-04    48   0.672E-02    0.138E-02
DAV:   8    -0.171173918093E+02   -0.12610E-03   -0.70797E-05    32   0.356E-02    0.683E-03
DAV:   9    -0.171174403279E+02   -0.48519E-04   -0.97886E-06    48   0.112E-02    0.392E-03
DAV:  10    -0.171175522473E+02   -0.11192E-03   -0.27189E-05    32   0.176E-02    0.254E-03
DAV:  11    -0.171175939892E+02   -0.41742E-04   -0.55959E-06    48   0.723E-03    0.174E-03
DAV:  12    -0.171176395369E+02   -0.45548E-04   -0.67704E-06    32   0.818E-03    0.820E-04
DAV:  13    -0.171176589729E+02   -0.19436E-04   -0.12561E-06    48   0.401E-03    0.349E-04
DAV:  14    -0.171176724553E+02   -0.13482E-04   -0.13559E-06    32   0.384E-03    0.246E-04
DAV:  15    -0.171176760569E+02   -0.36017E-05   -0.23305E-07    32   0.210E-03
  46 F= -.17117676E+02 E0= -.17117676E+02  d E =0.132544E+01
quench:  g(F)=  0.000E+00 g(S)=  0.000E+00 dE (1.order)= 0.000E+00
 bond charge predicted
       N       E                     dE             d eps       ncg     rms          rms(c)
DAV:   1    -0.184100783487E+02   -0.12924E+01   -0.47153E+01    32   0.369E+01    0.228E+00
DAV:   2    -0.183628741961E+02    0.47204E-01   -0.13368E+00    40   0.490E+00    0.140E+00
DAV:   3    -0.183309584246E+02    0.31916E-01   -0.23722E-01    40   0.173E+00    0.674E-01
DAV:   4    -0.183236207358E+02    0.73377E-02   -0.72416E-02    40   0.112E+00    0.193E-01
DAV:   5    -0.183234890960E+02    0.13164E-03   -0.33668E-03    32   0.291E-01    0.107E-01
DAV:   6    -0.183240543288E+02   -0.56523E-03   -0.93895E-04    40   0.139E-01    0.196E-02
DAV:   7    -0.183241836554E+02   -0.12933E-03   -0.61959E-05    48   0.374E-02    0.830E-03
DAV:   8    -0.183245370400E+02   -0.35338E-03   -0.39148E-05    40   0.249E-02    0.336E-03
DAV:   9    -0.183247333071E+02   -0.19627E-03   -0.13615E-05    40   0.144E-02    0.229E-03
DAV:  10    -0.183249159424E+02   -0.18264E-03   -0.20250E-05    32   0.174E-02    0.145E-03
DAV:  11    -0.183249758928E+02   -0.59950E-04   -0.60219E-06    32   0.985E-03    0.939E-04
DAV:  12    -0.183250003812E+02   -0.24488E-04   -0.15420E-06    32   0.467E-03    0.417E-04
DAV:  13    -0.183250163953E+02   -0.16014E-04   -0.83806E-07    32   0.314E-03    0.232E-04
DAV:  14    -0.183250219042E+02   -0.55089E-05   -0.27282E-07    32   0.172E-03
  47 F= -.18325022E+02 E0= -.18325022E+02  d E =-.120735E+01
quench:  g(F)=  0.000E+00 g(S)=  0.000E+00 dE (1.order)= 0.000E+00
 bond charge predicted
       N       E                     dE             d eps       ncg     rms          rms(c)
DAV:   1    -0.183651368066E+02   -0.40120E-01   -0.61257E-01    32   0.428E+00    0.269E-01
DAV:   2    -0.183644591410E+02    0.67767E-03   -0.11762E-02    40   0.498E-01    0.153E-01
DAV:   3    -0.183640543872E+02    0.40475E-03   -0.30634E-03    48   0.189E-01    0.728E-02
DAV:   4    -0.183639484677E+02    0.10592E-03   -0.78989E-04    32   0.121E-01    0.230E-02
DAV:   5    -0.183639441805E+02    0.42872E-05   -0.45001E-05    32   0.323E-02
  48 F= -.18363944E+02 E0= -.18363944E+02  d E =-.389223E-01
quench:  g(F)=  0.000E+00 g(S)=  0.000E+00 dE (1.order)= 0.000E+00
 bond charge predicted
       N       E                     dE             d eps       ncg     rms          rms(c)
DAV:   1    -0.183977311109E+02   -0.33783E-01   -0.26663E+00    32   0.892E+00    0.565E-01
DAV:   2    -0.183943209934E+02    0.34101E-02   -0.49568E-02    48   0.105E+00    0.322E-01
DAV:   3    -0.183925438840E+02    0.17771E-02   -0.11913E-02    40   0.396E-01    0.140E-01
DAV:   4    -0.183922162857E+02    0.32760E-03   -0.33024E-03    32   0.246E-01    0.484E-02
DAV:   5    -0.183921998531E+02    0.16433E-04   -0.17942E-04    40   0.623E-02    0.251E-02
DAV:   6    -0.183922353968E+02   -0.35544E-04   -0.67404E-05    32   0.459E-02    0.684E-03
DAV:   7    -0.183922489012E+02   -0.13504E-04   -0.63704E-06    40   0.114E-02    0.279E-03
DAV:   8    -0.183922816926E+02   -0.32791E-04   -0.46923E-06    32   0.109E-02    0.141E-03
DAV:   9    -0.183922954358E+02   -0.13743E-04   -0.59507E-07    48   0.347E-03    0.885E-04
DAV:  10    -0.183923157884E+02   -0.20353E-04   -0.11802E-06    32   0.448E-03    0.506E-04
DAV:  11    -0.183923308448E+02   -0.15056E-04   -0.84420E-07    32   0.343E-03    0.276E-04
DAV:  12    -0.183923370422E+02   -0.61974E-05   -0.31481E-07    32   0.230E-03
  49 F= -.18392337E+02 E0= -.18392337E+02  d E =-.283929E-01
quench:  g(F)=  0.000E+00 g(S)=  0.000E+00 dE (1.order)= 0.000E+00
 bond charge predicted
       N       E                     dE             d eps       ncg     rms          rms(c)
DAV:   1    -0.183835750925E+02    0.87558E-02   -0.84085E-01    32   0.498E+00    0.314E-01
DAV:   2    -0.183825402697E+02    0.10348E-02   -0.14577E-02    48   0.601E-01    0.178E-01
DAV:   3    -0.183819179106E+02    0.62236E-03   -0.41226E-03    32   0.255E-01    0.736E-02
DAV:   4    -0.183817723361E+02    0.14557E-03   -0.12752E-03    40   0.136E-01    0.302E-02
DAV:   5    -0.183817704533E+02    0.18828E-05   -0.98239E-05    32   0.379E-02
  50 F= -.18381770E+02 E0= -.18381770E+02  d E =0.105666E-01
quench:  g(F)=  0.000E+00 g(S)=  0.000E+00 dE (1.order)= 0.000E+00
 bond charge predicted
       N       E                     dE             d eps       ncg     rms          rms(c)
DAV:   1    -0.183897102245E+02   -0.79379E-02   -0.10600E-01    32   0.170E+00    0.118E-01
DAV:   2    -0.183895392464E+02    0.17098E-03   -0.16963E-03    32   0.196E-01    0.665E-02
DAV:   3    -0.183894537588E+02    0.85488E-04   -0.41695E-04    32   0.810E-02    0.138E-02
DAV:   4    -0.183894647943E+02   -0.11036E-04   -0.49526E-05    48   0.291E-02    0.684E-03
DAV:   5    -0.183894735547E+02   -0.87604E-05   -0.74411E-06    32   0.108E-02
  51 F= -.18389474E+02 E0= -.18389474E+02  d E =-.770310E-02
quench:  g(F)=  0.000E+00 g(S)=  0.000E+00 dE (1.order)= 0.000E+00
 bond charge predicted
       N       E                     dE             d eps       ncg     rms          rms(c)
DAV:   1    -0.184082935403E+02   -0.18829E-01   -0.27219E-01    32   0.286E+00    0.183E-01
DAV:   2    -0.184079298927E+02    0.36365E-03   -0.43118E-03    48   0.326E-01    0.101E-01
DAV:   3    -0.184077504559E+02    0.17944E-03   -0.13419E-03    32   0.135E-01    0.432E-02
DAV:   4    -0.184077325119E+02    0.17944E-04   -0.28005E-04    32   0.671E-02    0.145E-02
DAV:   5    -0.184077338762E+02   -0.13643E-05   -0.15023E-05    32   0.185E-02
  52 F= -.18407734E+02 E0= -.18407734E+02  d E =-.182603E-01
quench:  g(F)=  0.000E+00 g(S)=  0.000E+00 dE (1.order)= 0.000E+00
 bond charge predicted
       N       E                     dE             d eps       ncg     rms          rms(c)
DAV:   1    -0.184141129578E+02   -0.63804E-02   -0.24759E-02    32   0.860E-01    0.651E-02
DAV:   2    -0.184140309258E+02    0.82032E-04   -0.93948E-04    32   0.111E-01    0.351E-02
DAV:   3    -0.184140088867E+02    0.22039E-04   -0.14851E-04    32   0.443E-02    0.172E-02
DAV:   4    -0.184140013254E+02    0.75613E-05   -0.48242E-05    48   0.312E-02
  53 F= -.18414001E+02 E0= -.18414001E+02  d E =-.626745E-02
quench:  g(F)=  0.000E+00 g(S)=  0.000E+00 dE (1.order)= 0.000E+00
 bond charge predicted
       N       E                     dE             d eps       ncg     rms          rms(c)
DAV:   1    -0.184396951395E+02   -0.25686E-01   -0.15136E-01    32   0.214E+00    0.155E-01
DAV:   2    -0.184394135896E+02    0.28155E-03   -0.44034E-03    40   0.240E-01    0.761E-02
DAV:   3    -0.184393469016E+02    0.66688E-04   -0.54436E-04    48   0.800E-02    0.408E-02
DAV:   4    -0.184393097928E+02    0.37109E-04   -0.12825E-04    32   0.581E-02    0.922E-03
DAV:   5    -0.184393161440E+02   -0.63513E-05   -0.15962E-05    32   0.171E-02
  54 F= -.18439316E+02 E0= -.18439316E+02  d E =-.253148E-01
quench:  g(F)=  0.000E+00 g(S)=  0.000E+00 dE (1.order)= 0.000E+00
 bond charge predicted
       N       E                     dE             d eps       ncg     rms          rms(c)
DAV:   1    -0.184769218801E+02   -0.37612E-01   -0.29948E-01    32   0.301E+00    0.205E-01
DAV:   2    -0.184765549978E+02    0.36688E-03   -0.90724E-03    48   0.359E-01    0.103E-01
DAV:   3    -0.184764424091E+02    0.11259E-03   -0.13218E-03    40   0.125E-01    0.563E-02
DAV:   4    -0.184763620520E+02    0.80357E-04   -0.21206E-04    32   0.662E-02    0.102E-02
DAV:   5    -0.184763811977E+02   -0.19146E-04   -0.12897E-05    32   0.178E-02    0.506E-03
DAV:   6    -0.184764072882E+02   -0.26090E-04   -0.39365E-06    48   0.962E-03    0.133E-03
DAV:   7    -0.184764282650E+02   -0.20977E-04   -0.12298E-06    32   0.385E-03    0.102E-03
DAV:   8    -0.184764739405E+02   -0.45675E-04   -0.85988E-06    48   0.948E-03    0.658E-04
DAV:   9    -0.184764901465E+02   -0.16206E-04   -0.15426E-06    32   0.380E-03    0.392E-04
DAV:  10    -0.184764980292E+02   -0.78827E-05   -0.35200E-07    32   0.214E-03
  55 F= -.18476498E+02 E0= -.18476498E+02  d E =-.371819E-01
quench:  g(F)=  0.000E+00 g(S)=  0.000E+00 dE (1.order)= 0.000E+00
 bond charge predicted
       N       E                     dE             d eps       ncg     rms          rms(c)
DAV:   1    -0.185662810222E+02   -0.89791E-01   -0.18081E+00    32   0.738E+00    0.468E-01
DAV:   2    -0.185650250308E+02    0.12560E-02   -0.40642E-02    48   0.817E-01    0.235E-01
DAV:   3    -0.185645564643E+02    0.46857E-03   -0.49378E-03    48   0.244E-01    0.127E-01
DAV:   4    -0.185642510803E+02    0.30538E-03   -0.98531E-04    32   0.140E-01    0.254E-02
DAV:   5    -0.185642589510E+02   -0.78707E-05   -0.85527E-05    48   0.424E-02
  56 F= -.18564259E+02 E0= -.18564259E+02  d E =-.877609E-01
quench:  g(F)=  0.000E+00 g(S)=  0.000E+00 dE (1.order)= 0.000E+00
 bond charge predicted
       N       E                     dE             d eps       ncg     rms          rms(c)
DAV:   1    -0.186642062723E+02   -0.99955E-01   -0.26696E+00    32   0.899E+00    0.604E-01
DAV:   2    -0.186599263015E+02    0.42800E-02   -0.87379E-02    48   0.109E+00    0.304E-01
DAV:   3    -0.186590148732E+02    0.91143E-03   -0.93611E-03    40   0.345E-01    0.161E-01
DAV:   4    -0.186585239213E+02    0.49095E-03   -0.17681E-03    32   0.201E-01    0.352E-02
DAV:   5    -0.186585986333E+02   -0.74712E-04   -0.24971E-04    32   0.696E-02    0.169E-02
DAV:   6    -0.186587524319E+02   -0.15380E-03   -0.42240E-05    40   0.315E-02    0.427E-03
DAV:   7    -0.186588661827E+02   -0.11375E-03   -0.90859E-06    48   0.115E-02    0.291E-03
DAV:   8    -0.186591026540E+02   -0.23647E-03   -0.35107E-05    32   0.192E-02    0.174E-03
DAV:   9    -0.186592477408E+02   -0.14509E-03   -0.22650E-05    48   0.150E-02    0.915E-04
DAV:  10    -0.186592932752E+02   -0.45534E-04   -0.27378E-06    32   0.619E-03    0.584E-04
DAV:  11    -0.186593216326E+02   -0.28357E-04   -0.90758E-07    32   0.464E-03    0.271E-04
DAV:  12    -0.186593282210E+02   -0.65884E-05   -0.29203E-07    48   0.231E-03
  57 F= -.18659328E+02 E0= -.18659328E+02  d E =-.950693E-01
quench:  g(F)=  0.000E+00 g(S)=  0.000E+00 dE (1.order)= 0.000E+00
 bond charge predicted
       N       E                     dE             d eps       ncg     rms          rms(c)
DAV:   1    -0.186974984576E+02   -0.38177E-01   -0.33104E+00    32   0.100E+01    0.678E-01
DAV:   2    -0.186916302506E+02    0.58682E-02   -0.77067E-02    48   0.118E+00    0.382E-01
DAV:   3    -0.186895249760E+02    0.21053E-02   -0.20007E-02    40   0.474E-01    0.184E-01
DAV:   4    -0.186888926040E+02    0.63237E-03   -0.46194E-03    32   0.270E-01    0.508E-02
DAV:   5    -0.186888865383E+02    0.60658E-05   -0.16880E-04    32   0.680E-02    0.242E-02
DAV:   6    -0.186888845994E+02    0.19388E-05   -0.49823E-05    48   0.332E-02
  58 F= -.18688885E+02 E0= -.18688885E+02  d E =-.295564E-01
quench:  g(F)=  0.000E+00 g(S)=  0.000E+00 dE (1.order)= 0.000E+00
 bond charge predicted
       N       E                     dE             d eps       ncg     rms          rms(c)
DAV:   1    -0.187413650549E+02   -0.52479E-01   -0.16721E+00    32   0.710E+00    0.528E-01
DAV:   2    -0.187360323573E+02    0.53327E-02   -0.69809E-02    56   0.996E-01    0.292E-01
DAV:   3    -0.187344216679E+02    0.16107E-02   -0.10493E-02    40   0.356E-01    0.135E-01
DAV:   4    -0.187340511259E+02    0.37054E-03   -0.28791E-03    32   0.254E-01    0.364E-02
DAV:   5    -0.187340855617E+02   -0.34436E-04   -0.18188E-04    32   0.669E-02    0.181E-02
DAV:   6    -0.187341330641E+02   -0.47502E-04   -0.25099E-05    32   0.252E-02    0.310E-03
DAV:   7    -0.187341517907E+02   -0.18727E-04   -0.16293E-06    48   0.582E-03    0.189E-03
DAV:   8    -0.187341854396E+02   -0.33649E-04   -0.30300E-06    32   0.608E-03    0.970E-04
DAV:   9    -0.187342100844E+02   -0.24645E-04   -0.23019E-06    32   0.543E-03    0.958E-04
DAV:  10    -0.187342278661E+02   -0.17782E-04   -0.16569E-06    32   0.488E-03    0.398E-04
DAV:  11    -0.187342348264E+02   -0.69602E-05   -0.34710E-07    32   0.236E-03
  59 F= -.18734235E+02 E0= -.18734235E+02  d E =-.453502E-01
quench:  g(F)=  0.000E+00 g(S)=  0.000E+00 dE (1.order)= 0.000E+00
 bond charge predicted
       N       E                     dE             d eps       ncg     rms          rms(c)
DAV:   1    -0.186637783878E+02    0.70449E-01   -0.13534E+00    32   0.640E+00    0.364E-01
DAV:   2    -0.186635555781E+02    0.22281E-03   -0.16931E-02    48   0.662E-01    0.202E-01
DAV:   3    -0.186629184609E+02    0.63712E-03   -0.32896E-03    56   0.249E-01    0.535E-02
DAV:   4    -0.186628860387E+02    0.32422E-04   -0.23657E-04    32   0.624E-02    0.263E-02
DAV:   5    -0.186628951005E+02   -0.90617E-05   -0.69235E-05    32   0.335E-02
  60 F= -.18662895E+02 E0= -.18662895E+02  d E =0.713397E-01
quench:  g(F)=  0.000E+00 g(S)=  0.000E+00 dE (1.order)= 0.000E+00
 bond charge predicted
       N       E                     dE             d eps       ncg     rms          rms(c)
DAV:   1    -0.185998438246E+02    0.63042E-01   -0.16384E+00    32   0.708E+00    0.526E-01
DAV:   2    -0.185959684789E+02    0.38753E-02   -0.80061E-02    48   0.989E-01    0.274E-01
DAV:   3    -0.185950006554E+02    0.96782E-03   -0.95548E-03    48   0.335E-01    0.133E-01
DAV:   4    -0.185946973483E+02    0.30331E-03   -0.15684E-03    32   0.198E-01    0.302E-02
DAV:   5    -0.185947380855E+02   -0.40737E-04   -0.19916E-04    32   0.653E-02    0.142E-02
DAV:   6    -0.185948178599E+02   -0.79774E-04   -0.35281E-05    32   0.281E-02    0.351E-03
DAV:   7    -0.185948671510E+02   -0.49291E-04   -0.52471E-06    48   0.953E-03    0.230E-03
DAV:   8    -0.185949751921E+02   -0.10804E-03   -0.23751E-05    32   0.170E-02    0.166E-03
DAV:   9    -0.185950184924E+02   -0.43300E-04   -0.58474E-06    48   0.741E-03    0.189E-03
DAV:  10    -0.185950484477E+02   -0.29955E-04   -0.53123E-06    32   0.759E-03    0.541E-04
DAV:  11    -0.185950612212E+02   -0.12773E-04   -0.40727E-07    48   0.267E-03    0.318E-04
DAV:  12    -0.185950682898E+02   -0.70686E-05   -0.17185E-07    32   0.198E-03
  61 F= -.18595068E+02 E0= -.18595068E+02  d E =0.678268E-01
quench:  g(F)=  0.000E+00 g(S)=  0.000E+00 dE (1.order)= 0.000E+00
 bond charge predicted
       N       E                     dE             d eps       ncg     rms          rms(c)
DAV:   1    -0.185799112529E+02    0.15150E-01   -0.94708E-02    32   0.169E+00    0.103E-01
DAV:   2    -0.185798818345E+02    0.29418E-04   -0.10205E-03    48   0.146E-01    0.552E-02
DAV:   3    -0.185798412795E+02    0.40555E-04   -0.22609E-04    48   0.584E-02    0.183E-02
DAV:   4    -0.185798343428E+02    0.69367E-05   -0.44570E-05    48   0.239E-02
  62 F= -.18579834E+02 E0= -.18579834E+02  d E =0.152339E-01
quench:  g(F)=  0.000E+00 g(S)=  0.000E+00 dE (1.order)= 0.000E+00
 bond charge predicted
       N       E                     dE             d eps       ncg     rms          rms(c)
DAV:   1    -0.185713862418E+02    0.84550E-02   -0.70874E-02    32   0.146E+00    0.101E-01
DAV:   2    -0.185712553415E+02    0.13090E-03   -0.23864E-03    40   0.187E-01    0.606E-02
DAV:   3    -0.185711979533E+02    0.57388E-04   -0.44587E-04    32   0.700E-02    0.304E-02
DAV:   4    -0.185711793334E+02    0.18620E-04   -0.13516E-04    48   0.534E-02    0.786E-03
DAV:   5    -0.185711799774E+02   -0.64399E-06   -0.87787E-06    48   0.131E-02
  63 F= -.18571180E+02 E0= -.18571180E+02  d E =0.865437E-02
quench:  g(F)=  0.000E+00 g(S)=  0.000E+00 dE (1.order)= 0.000E+00
 bond charge predicted
       N       E                     dE             d eps       ncg     rms          rms(c)
DAV:   1    -0.185635987185E+02    0.75806E-02   -0.37361E-02    32   0.107E+00    0.670E-02
DAV:   2    -0.185635622862E+02    0.36432E-04   -0.61030E-04    40   0.114E-01    0.392E-02
DAV:   3    -0.185635373099E+02    0.24976E-04   -0.16723E-04    40   0.437E-02    0.163E-02
DAV:   4    -0.185635355339E+02    0.17761E-05   -0.44220E-05    32   0.280E-02
  64 F= -.18563536E+02 E0= -.18563536E+02  d E =0.764444E-02
quench:  g(F)=  0.000E+00 g(S)=  0.000E+00 dE (1.order)= 0.000E+00
 bond charge predicted
       N       E                     dE             d eps       ncg     rms          rms(c)
DAV:   1    -0.185354803198E+02    0.28057E-01   -0.31970E-01    32   0.311E+00    0.190E-01
DAV:   2    -0.185353733674E+02    0.10695E-03   -0.33080E-03    32   0.271E-01    0.102E-01
DAV:   3    -0.185352153277E+02    0.15804E-03   -0.73777E-04    48   0.113E-01    0.243E-02
DAV:   4    -0.185352062780E+02    0.90497E-05   -0.82484E-05    32   0.359E-02
  65 F= -.18535206E+02 E0= -.18535206E+02  d E =0.283293E-01
quench:  g(F)=  0.000E+00 g(S)=  0.000E+00 dE (1.order)= 0.000E+00
 bond charge predicted
       N       E                     dE             d eps       ncg     rms          rms(c)
DAV:   1    -0.184804613069E+02    0.54754E-01   -0.11214E+00    32   0.579E+00    0.357E-01
DAV:   2    -0.184801178230E+02    0.34348E-03   -0.14683E-02    40   0.553E-01    0.187E-01
DAV:   3    -0.184797472074E+02    0.37062E-03   -0.24933E-03    40   0.168E-01    0.807E-02
DAV:   4    -0.184795946759E+02    0.15253E-03   -0.62120E-04    48   0.951E-02    0.204E-02
DAV:   5    -0.184796142695E+02   -0.19594E-04   -0.42457E-05    32   0.306E-02    0.943E-03
DAV:   6    -0.184796447108E+02   -0.30441E-04   -0.10015E-05    32   0.163E-02    0.222E-03
DAV:   7    -0.184796700610E+02   -0.25350E-04   -0.23501E-06    48   0.544E-03    0.167E-03
DAV:   8    -0.184797231636E+02   -0.53103E-04   -0.97350E-06    32   0.101E-02    0.975E-04
DAV:   9    -0.184797518236E+02   -0.28660E-04   -0.35471E-06    48   0.566E-03    0.456E-04
DAV:  10    -0.184797609699E+02   -0.91463E-05   -0.98473E-07    32   0.301E-03
  66 F= -.18479761E+02 E0= -.18479761E+02  d E =0.554453E-01
quench:  g(F)=  0.000E+00 g(S)=  0.000E+00 dE (1.order)= 0.000E+00
 bond charge predicted
       N       E                     dE             d eps       ncg     rms          rms(c)
DAV:   1    -0.184291551004E+02    0.50597E-01   -0.20394E+00    32   0.779E+00    0.518E-01
DAV:   2    -0.184270453497E+02    0.21098E-02   -0.51195E-02    48   0.901E-01    0.284E-01
DAV:   3    -0.184260816243E+02    0.96373E-03   -0.80724E-03    48   0.299E-01    0.145E-01
DAV:   4    -0.184257601575E+02    0.32147E-03   -0.20096E-03    32   0.203E-01    0.326E-02
DAV:   5    -0.184257619638E+02   -0.18064E-05   -0.16961E-04    48   0.609E-02    0.150E-02
DAV:   6    -0.184257851163E+02   -0.23152E-04   -0.23122E-05    32   0.240E-02    0.304E-03
DAV:   7    -0.184258023499E+02   -0.17234E-04   -0.25155E-06    48   0.675E-03    0.170E-03
DAV:   8    -0.184258322700E+02   -0.29920E-04   -0.48431E-06    32   0.723E-03    0.105E-03
DAV:   9    -0.184258613531E+02   -0.29083E-04   -0.50504E-06    32   0.679E-03    0.512E-04
DAV:  10    -0.184258739962E+02   -0.12643E-04   -0.25370E-06    48   0.463E-03    0.360E-04
DAV:  11    -0.184258830716E+02   -0.90754E-05   -0.50871E-07    32   0.250E-03
  67 F= -.18425883E+02 E0= -.18425883E+02  d E =0.538779E-01
quench:  g(F)=  0.000E+00 g(S)=  0.000E+00 dE (1.order)= 0.000E+00
 bond charge predicted
       N       E                     dE             d eps       ncg     rms          rms(c)
DAV:   1    -0.184067007134E+02    0.19173E-01   -0.19262E-01    32   0.239E+00    0.140E-01
DAV:   2    -0.184066319108E+02    0.68803E-04   -0.37835E-03    32   0.272E-01    0.777E-02
DAV:   3    -0.184065587400E+02    0.73171E-04   -0.46715E-04    56   0.813E-02    0.382E-02
DAV:   4    -0.184065265170E+02    0.32223E-04   -0.12052E-04    32   0.522E-02    0.849E-03
DAV:   5    -0.184065296736E+02   -0.31566E-05   -0.11314E-05    48   0.168E-02
  68 F= -.18406530E+02 E0= -.18406530E+02  d E =0.193534E-01
quench:  g(F)=  0.000E+00 g(S)=  0.000E+00 dE (1.order)= 0.000E+00
 bond charge predicted
       N       E                     dE             d eps       ncg     rms          rms(c)
DAV:   1    -0.184691007871E+02   -0.62574E-01   -0.22712E+00    32   0.820E+00    0.508E-01
DAV:   2    -0.184680104438E+02    0.10903E-02   -0.44963E-02    56   0.901E-01    0.278E-01
DAV:   3    -0.184672925003E+02    0.71794E-03   -0.60508E-03    40   0.269E-01    0.138E-01
DAV:   4    -0.184669693372E+02    0.32316E-03   -0.19745E-03    48   0.187E-01    0.318E-02
DAV:   5    -0.184669914444E+02   -0.22107E-04   -0.12004E-04    40   0.533E-02    0.160E-02
DAV:   6    -0.184670193562E+02   -0.27912E-04   -0.25773E-05    32   0.274E-02    0.322E-03
DAV:   7    -0.184670390172E+02   -0.19661E-04   -0.29435E-06    48   0.776E-03    0.175E-03
DAV:   8    -0.184670689461E+02   -0.29929E-04   -0.35399E-06    32   0.632E-03    0.915E-04
DAV:   9    -0.184670988321E+02   -0.29886E-04   -0.43130E-06    48   0.658E-03    0.699E-04
DAV:  10    -0.184671151619E+02   -0.16330E-04   -0.32706E-06    32   0.573E-03    0.360E-04
DAV:  11    -0.184671234022E+02   -0.82403E-05   -0.50543E-07    32   0.259E-03
  69 F= -.18467123E+02 E0= -.18467123E+02  d E =-.605937E-01
quench:  g(F)=  0.000E+00 g(S)=  0.000E+00 dE (1.order)= 0.000E+00
 bond charge predicted
       N       E                     dE             d eps       ncg     rms          rms(c)
DAV:   1    -0.184572956510E+02    0.98195E-02   -0.46659E-02    48   0.116E+00    0.941E-02
DAV:   2    -0.184571539957E+02    0.14166E-03   -0.34477E-03    40   0.212E-01    0.570E-02
DAV:   3    -0.184571037799E+02    0.50216E-04   -0.46905E-04    48   0.782E-02    0.258E-02
DAV:   4    -0.184570946123E+02    0.91676E-05   -0.64706E-05    32   0.401E-02
  70 F= -.18457095E+02 E0= -.18457095E+02  d E =0.100288E-01
quench:  g(F)=  0.000E+00 g(S)=  0.000E+00 dE (1.order)= 0.000E+00
 bond charge predicted
       N       E                     dE             d eps       ncg     rms          rms(c)
DAV:   1    -0.184582304886E+02   -0.11267E-02   -0.27727E-02    32   0.879E-01    0.578E-02
DAV:   2    -0.184581889064E+02    0.41582E-04   -0.44045E-04    40   0.102E-01    0.321E-02
DAV:   3    -0.184581672696E+02    0.21637E-04   -0.11851E-04    32   0.477E-02    0.535E-03
DAV:   4    -0.184581681949E+02   -0.92523E-06   -0.75869E-06    32   0.131E-02
  71 F= -.18458168E+02 E0= -.18458168E+02  d E =-.107358E-02
quench:  g(F)=  0.000E+00 g(S)=  0.000E+00 dE (1.order)= 0.000E+00
 bond charge predicted
       N       E                     dE             d eps       ncg     rms          rms(c)
DAV:   1    -0.184558571114E+02    0.23102E-02   -0.30019E-03    32   0.300E-01    0.183E-02
DAV:   2    -0.184558567776E+02    0.33384E-06   -0.37018E-05    56   0.281E-02
  72 F= -.18455857E+02 E0= -.18455857E+02  d E =0.231142E-02
quench:  g(F)=  0.000E+00 g(S)=  0.000E+00 dE (1.order)= 0.000E+00
 bond charge predicted
       N       E                     dE             d eps       ncg     rms          rms(c)
DAV:   1    -0.184518272329E+02    0.40299E-02   -0.58954E-03    32   0.439E-01    0.245E-02
DAV:   2    -0.184518276373E+02   -0.40439E-06   -0.11224E-04    32   0.482E-02    0.129E-02
DAV:   3    -0.184518249432E+02    0.26941E-05   -0.13553E-05    32   0.160E-02
  73 F= -.18451825E+02 E0= -.18451825E+02  d E =0.403183E-02
quench:  g(F)=  0.000E+00 g(S)=  0.000E+00 dE (1.order)= 0.000E+00
 bond charge predicted
       N       E                     dE             d eps       ncg     rms          rms(c)
DAV:   1    -0.184465157637E+02    0.53119E-02   -0.74648E-03    32   0.487E-01    0.324E-02
DAV:   2    -0.184465095620E+02    0.62017E-05   -0.30967E-04    32   0.691E-02    0.176E-02
DAV:   3    -0.184465059503E+02    0.36117E-05   -0.30851E-05    32   0.201E-02
  74 F= -.18446506E+02 E0= -.18446506E+02  d E =0.531899E-02
quench:  g(F)=  0.000E+00 g(S)=  0.000E+00 dE (1.order)= 0.000E+00
 bond charge predicted
       N       E                     dE             d eps       ncg     rms          rms(c)
DAV:   1    -0.184477059484E+02   -0.11964E-02   -0.15462E-03    32   0.214E-01    0.117E-02
DAV:   2    -0.184477072534E+02   -0.13050E-05   -0.18784E-05    32   0.225E-02
  75 F= -.18447707E+02 E0= -.18447707E+02  d E =-.120130E-02
quench:  g(F)=  0.000E+00 g(S)=  0.000E+00 dE (1.order)= 0.000E+00
 bond charge predicted
       N       E                     dE             d eps       ncg     rms          rms(c)
DAV:   1    -0.184490082428E+02   -0.13023E-02   -0.37197E-03    32   0.336E-01    0.186E-02
DAV:   2    -0.184490101426E+02   -0.18998E-05   -0.45141E-05    56   0.327E-02
  76 F= -.18449010E+02 E0= -.18449010E+02  d E =-.130289E-02
quench:  g(F)=  0.000E+00 g(S)=  0.000E+00 dE (1.order)= 0.000E+00
 bond charge predicted
       N       E                     dE             d eps       ncg     rms          rms(c)
DAV:   1    -0.184494386676E+02   -0.43042E-03   -0.17901E-02    32   0.747E-01    0.403E-02
DAV:   2    -0.184494505883E+02   -0.11921E-04   -0.18424E-04    56   0.697E-02    0.247E-02
DAV:   3    -0.184494398738E+02    0.10715E-04   -0.32653E-05    32   0.247E-02    0.499E-03
DAV:   4    -0.184494402476E+02   -0.37383E-06   -0.39033E-06    48   0.852E-03
  77 F= -.18449440E+02 E0= -.18449440E+02  d E =-.430105E-03
quench:  g(F)=  0.000E+00 g(S)=  0.000E+00 dE (1.order)= 0.000E+00
 bond charge predicted
       N       E                     dE             d eps       ncg     rms          rms(c)
DAV:   1    -0.184490127560E+02    0.42712E-03   -0.33876E-01    32   0.321E+00    0.159E-01
DAV:   2    -0.184491376458E+02   -0.12489E-03   -0.36886E-03    56   0.315E-01    0.981E-02
DAV:   3    -0.184490246069E+02    0.11304E-03   -0.62733E-04    48   0.107E-01    0.219E-02
DAV:   4    -0.184490303822E+02   -0.57753E-05   -0.11500E-04    32   0.437E-02    0.115E-02
DAV:   5    -0.184490342732E+02   -0.38910E-05   -0.14102E-05    32   0.148E-02
  78 F= -.18449034E+02 E0= -.18449034E+02  d E =0.405974E-03
quench:  g(F)=  0.000E+00 g(S)=  0.000E+00 dE (1.order)= 0.000E+00
 bond charge predicted
       N       E                     dE             d eps       ncg     rms          rms(c)
DAV:   1    -0.184512415385E+02   -0.22112E-02   -0.83066E-02    32   0.160E+00    0.776E-02
DAV:   2    -0.184512947623E+02   -0.53224E-04   -0.92386E-04    48   0.154E-01    0.481E-02
DAV:   3    -0.184512798994E+02    0.14863E-04   -0.12969E-04    32   0.535E-02    0.109E-02
DAV:   4    -0.184512799308E+02   -0.31351E-07   -0.26932E-05    56   0.214E-02
  79 F= -.18451280E+02 E0= -.18451280E+02  d E =-.224566E-02
quench:  g(F)=  0.000E+00 g(S)=  0.000E+00 dE (1.order)= 0.000E+00
 bond charge predicted
       N       E                     dE             d eps       ncg     rms          rms(c)
DAV:   1    -0.184566863857E+02   -0.54065E-02   -0.16388E-01    32   0.224E+00    0.113E-01
DAV:   2    -0.184567366033E+02   -0.50218E-04   -0.18733E-03    32   0.227E-01    0.699E-02
DAV:   3    -0.184566864719E+02    0.50131E-04   -0.35198E-04    40   0.819E-02    0.195E-02
DAV:   4    -0.184566878005E+02   -0.13286E-05   -0.67730E-05    32   0.345E-02
  80 F= -.18456688E+02 E0= -.18456688E+02  d E =-.540787E-02
quench:  g(F)=  0.000E+00 g(S)=  0.000E+00 dE (1.order)= 0.000E+00
 bond charge predicted
       N       E                     dE             d eps       ncg     rms          rms(c)
DAV:   1    -0.184711663083E+02   -0.14480E-01   -0.17455E-01    32   0.239E+00    0.120E-01
DAV:   2    -0.184712137639E+02   -0.47456E-04   -0.25102E-03    40   0.240E-01    0.705E-02
DAV:   3    -0.184711894109E+02    0.24353E-04   -0.13574E-04    32   0.548E-02    0.335E-02
DAV:   4    -0.184711748630E+02    0.14548E-04   -0.53738E-05    32   0.396E-02    0.698E-03
DAV:   5    -0.184711835515E+02   -0.86885E-05   -0.50661E-06    32   0.104E-02
  81 F= -.18471184E+02 E0= -.18471184E+02  d E =-.144958E-01
quench:  g(F)=  0.000E+00 g(S)=  0.000E+00 dE (1.order)= 0.000E+00
 bond charge predicted
       N       E                     dE             d eps       ncg     rms          rms(c)
DAV:   1    -0.184640460842E+02    0.71288E-02   -0.89374E-02    32   0.168E+00    0.831E-02
DAV:   2    -0.184641230550E+02   -0.76971E-04   -0.10098E-03    32   0.173E-01    0.506E-02
DAV:   3    -0.184641054472E+02    0.17608E-04   -0.15074E-04    32   0.657E-02    0.108E-02
DAV:   4    -0.184641055633E+02   -0.11618E-06   -0.25778E-05    48   0.219E-02
  82 F= -.18464106E+02 E0= -.18464106E+02  d E =0.707799E-02
quench:  g(F)=  0.000E+00 g(S)=  0.000E+00 dE (1.order)= 0.000E+00
 bond charge predicted
       N       E                     dE             d eps       ncg     rms          rms(c)
DAV:   1    -0.184572563805E+02    0.68491E-02   -0.47386E-02    32   0.124E+00    0.647E-02
DAV:   2    -0.184572671670E+02   -0.10786E-04   -0.85794E-04    32   0.128E-01    0.383E-02
DAV:   3    -0.184572558169E+02    0.11350E-04   -0.76304E-05    32   0.336E-02    0.210E-02
DAV:   4    -0.184572476842E+02    0.81326E-05   -0.22944E-05    32   0.256E-02
  83 F= -.18457248E+02 E0= -.18457248E+02  d E =0.685788E-02
quench:  g(F)=  0.000E+00 g(S)=  0.000E+00 dE (1.order)= 0.000E+00
 bond charge predicted
       N       E                     dE             d eps       ncg     rms          rms(c)
DAV:   1    -0.184571352386E+02    0.12058E-03   -0.27579E-02    32   0.926E-01    0.457E-02
DAV:   2    -0.184571511202E+02   -0.15882E-04   -0.31651E-04    32   0.885E-02    0.279E-02
DAV:   3    -0.184571416129E+02    0.95073E-05   -0.43696E-05    48   0.287E-02
  84 F= -.18457142E+02 E0= -.18457142E+02  d E =0.106071E-03
quench:  g(F)=  0.000E+00 g(S)=  0.000E+00 dE (1.order)= 0.000E+00
 bond charge predicted
       N       E                     dE             d eps       ncg     rms          rms(c)
DAV:   1    -0.184343950007E+02    0.22756E-01   -0.31153E-01    32   0.305E+00    0.174E-01
DAV:   2    -0.184344141464E+02   -0.19146E-04   -0.34995E-03    40   0.295E-01    0.958E-02
DAV:   3    -0.184342888620E+02    0.12528E-03   -0.77157E-04    48   0.110E-01    0.347E-02
DAV:   4    -0.184342621972E+02    0.26665E-04   -0.17640E-04    32   0.465E-02    0.117E-02
DAV:   5    -0.184342636642E+02   -0.14670E-05   -0.13377E-05    32   0.179E-02
  85 F= -.18434264E+02 E0= -.18434264E+02  d E =0.228779E-01
quench:  g(F)=  0.000E+00 g(S)=  0.000E+00 dE (1.order)= 0.000E+00
 bond charge predicted
       N       E                     dE             d eps       ncg     rms          rms(c)
DAV:   1    -0.184541668232E+02   -0.19905E-01   -0.29492E-01    32   0.297E+00    0.167E-01
DAV:   2    -0.184541861488E+02   -0.19326E-04   -0.31886E-03    40   0.285E-01    0.932E-02
DAV:   3    -0.184540842776E+02    0.10187E-03   -0.65069E-04    48   0.107E-01    0.249E-02
DAV:   4    -0.184540736681E+02    0.10609E-04   -0.11130E-04    40   0.385E-02    0.111E-02
DAV:   5    -0.184540710082E+02    0.26599E-05   -0.10338E-05    32   0.142E-02
  86 F= -.18454071E+02 E0= -.18454071E+02  d E =-.198073E-01
quench:  g(F)=  0.000E+00 g(S)=  0.000E+00 dE (1.order)= 0.000E+00
 bond charge predicted
       N       E                     dE             d eps       ncg     rms          rms(c)
DAV:   1    -0.184574873724E+02   -0.34137E-02   -0.67815E-03    32   0.449E-01    0.281E-02
DAV:   2    -0.184574841622E+02    0.32102E-05   -0.14005E-04    56   0.495E-02    0.158E-02
DAV:   3    -0.184574821939E+02    0.19683E-05   -0.27836E-05    32   0.173E-02
  87 F= -.18457482E+02 E0= -.18457482E+02  d E =-.341119E-02
quench:  g(F)=  0.000E+00 g(S)=  0.000E+00 dE (1.order)= 0.000E+00
 bond charge predicted
       N       E                     dE             d eps       ncg     rms          rms(c)
DAV:   1    -0.184565772370E+02    0.90693E-03   -0.93708E-04    32   0.165E-01    0.133E-02
DAV:   2    -0.184565758375E+02    0.13995E-05   -0.65016E-05    32   0.306E-02
  88 F= -.18456576E+02 E0= -.18456576E+02  d E =0.906356E-03
quench:  g(F)=  0.000E+00 g(S)=  0.000E+00 dE (1.order)= 0.000E+00
 bond charge predicted
       N       E                     dE             d eps       ncg     rms          rms(c)
DAV:   1    -0.184564175245E+02    0.15971E-03   -0.28876E-04    48   0.929E-02    0.633E-03
DAV:   2    -0.184564168467E+02    0.67785E-06   -0.14053E-05    48   0.160E-02
  89 F= -.18456417E+02 E0= -.18456417E+02  d E =0.158991E-03
quench:  g(F)=  0.000E+00 g(S)=  0.000E+00 dE (1.order)= 0.000E+00
 bond charge predicted
       N       E                     dE             d eps       ncg     rms          rms(c)
DAV:   1    -0.184575851071E+02   -0.11676E-02   -0.46176E-04    48   0.117E-01    0.687E-03
DAV:   2    -0.184575846957E+02    0.41136E-06   -0.86169E-06    40   0.138E-02
  90 F= -.18457585E+02 E0= -.18457585E+02  d E =-.116785E-02
quench:  g(F)=  0.000E+00 g(S)=  0.000E+00 dE (1.order)= 0.000E+00
 bond charge predicted
       N       E                     dE             d eps       ncg     rms          rms(c)
DAV:   1    -0.184644328659E+02   -0.68478E-02   -0.18380E-02    32   0.739E-01    0.482E-02
DAV:   2    -0.184644214788E+02    0.11387E-04   -0.41397E-04    40   0.832E-02    0.260E-02
DAV:   3    -0.184644147796E+02    0.66992E-05   -0.78571E-05    32   0.297E-02
  91 F= -.18464415E+02 E0= -.18464415E+02  d E =-.683008E-02
quench:  g(F)=  0.000E+00 g(S)=  0.000E+00 dE (1.order)= 0.000E+00
 bond charge predicted
       N       E                     dE             d eps       ncg     rms          rms(c)
DAV:   1    -0.184587807050E+02    0.56408E-02   -0.92718E-03    48   0.523E-01    0.324E-02
DAV:   2    -0.184587799045E+02    0.80056E-06   -0.25609E-04    32   0.665E-02    0.170E-02
DAV:   3    -0.184587755044E+02    0.44001E-05   -0.35199E-05    48   0.223E-02
  92 F= -.18458776E+02 E0= -.18458776E+02  d E =0.563928E-02
quench:  g(F)=  0.000E+00 g(S)=  0.000E+00 dE (1.order)= 0.000E+00
 bond charge predicted
       N       E                     dE             d eps       ncg     rms          rms(c)
DAV:   1    -0.184587595157E+02    0.20389E-04   -0.13632E-03    48   0.204E-01    0.125E-02
DAV:   2    -0.184587587907E+02    0.72505E-06   -0.24776E-05    32   0.242E-02
  93 F= -.18458759E+02 E0= -.18458759E+02  d E =0.167137E-04
quench:  g(F)=  0.000E+00 g(S)=  0.000E+00 dE (1.order)= 0.000E+00
 bond charge predicted
       N       E                     dE             d eps       ncg     rms          rms(c)
DAV:   1    -0.184587453718E+02    0.14144E-04   -0.56525E-05    32   0.402E-02    0.325E-03
DAV:   2    -0.184587454591E+02   -0.87312E-07   -0.14698E-06    48   0.585E-03
  94 F= -.18458745E+02 E0= -.18458745E+02  d E =0.133315E-04
quench:  g(F)=  0.000E+00 g(S)=  0.000E+00 dE (1.order)= 0.000E+00
 bond charge predicted
       N       E                     dE             d eps       ncg     rms          rms(c)
DAV:   1    -0.184592470668E+02   -0.50169E-03   -0.54864E-05    32   0.424E-02    0.241E-03
DAV:   2    -0.184592471035E+02   -0.36775E-07   -0.73987E-07    48   0.452E-03
  95 F= -.18459247E+02 E0= -.18459247E+02  d E =-.501644E-03
quench:  g(F)=  0.000E+00 g(S)=  0.000E+00 dE (1.order)= 0.000E+00
 bond charge predicted
       N       E                     dE             d eps       ncg     rms          rms(c)
DAV:   1    -0.184598962289E+02   -0.64916E-03   -0.91507E-02    32   0.168E+00    0.838E-02
DAV:   2    -0.184599532113E+02   -0.56982E-04   -0.97322E-04    48   0.163E-01    0.521E-02
DAV:   3    -0.184599259832E+02    0.27228E-04   -0.20398E-04    48   0.535E-02    0.162E-02
DAV:   4    -0.184599247166E+02    0.12666E-05   -0.41098E-05    32   0.246E-02
  96 F= -.18459925E+02 E0= -.18459925E+02  d E =-.677613E-03
quench:  g(F)=  0.000E+00 g(S)=  0.000E+00 dE (1.order)= 0.000E+00
 bond charge predicted
       N       E                     dE             d eps       ncg     rms          rms(c)
DAV:   1    -0.184637184165E+02   -0.37924E-02   -0.24110E-01    32   0.271E+00    0.140E-01
DAV:   2    -0.184638243490E+02   -0.10593E-03   -0.25357E-03    56   0.257E-01    0.843E-02
DAV:   3    -0.184637554939E+02    0.68855E-04   -0.48350E-04    32   0.821E-02    0.222E-02
DAV:   4    -0.184637468708E+02    0.86231E-05   -0.10397E-04    48   0.371E-02    0.991E-03
DAV:   5    -0.184637469247E+02   -0.53919E-07   -0.76708E-06    40   0.118E-02
  97 F= -.18463747E+02 E0= -.18463747E+02  d E =-.382221E-02
quench:  g(F)=  0.000E+00 g(S)=  0.000E+00 dE (1.order)= 0.000E+00
 bond charge predicted
       N       E                     dE             d eps       ncg     rms          rms(c)
DAV:   1    -0.184247067506E+02    0.39040E-01   -0.18682E+00    32   0.751E+00    0.438E-01
DAV:   2    -0.184246355842E+02    0.71166E-04   -0.20980E-02    56   0.683E-01    0.246E-01
DAV:   3    -0.184240457581E+02    0.58983E-03   -0.44477E-03    48   0.223E-01    0.904E-02
DAV:   4    -0.184239201733E+02    0.12558E-03   -0.97228E-04    32   0.117E-01    0.275E-02
DAV:   5    -0.184239229440E+02   -0.27707E-05   -0.79582E-05    32   0.393E-02
  98 F= -.18423923E+02 E0= -.18423923E+02  d E =0.398240E-01
quench:  g(F)=  0.000E+00 g(S)=  0.000E+00 dE (1.order)= 0.000E+00
 bond charge predicted
       N       E                     dE             d eps       ncg     rms          rms(c)
DAV:   1    -0.184581882586E+02   -0.34268E-01   -0.12965E+00    32   0.624E+00    0.364E-01
DAV:   2    -0.184582255993E+02   -0.37341E-04   -0.15182E-02    40   0.572E-01    0.205E-01
DAV:   3    -0.184578145191E+02    0.41108E-03   -0.29896E-03    48   0.182E-01    0.734E-02
DAV:   4    -0.184577306641E+02    0.83855E-04   -0.78094E-04    48   0.101E-01    0.214E-02
DAV:   5    -0.184577280893E+02    0.25748E-05   -0.34773E-05    40   0.283E-02
  99 F= -.18457728E+02 E0= -.18457728E+02  d E =-.338051E-01
quench:  g(F)=  0.000E+00 g(S)=  0.000E+00 dE (1.order)= 0.000E+00
 bond charge predicted
       N       E                     dE             d eps       ncg     rms          rms(c)
DAV:   1    -0.184499240924E+02    0.78066E-02   -0.18219E-02    32   0.778E-01    0.477E-02
DAV:   2    -0.184499201224E+02    0.39699E-05   -0.58408E-04    32   0.950E-02    0.241E-02
DAV:   3    -0.184499157101E+02    0.44123E-05   -0.46160E-05    48   0.271E-02
 100 F= -.18449916E+02 E0= -.18449916E+02  d E =0.781238E-02
quench:  g(F)=  0.000E+00 g(S)=  0.000E+00 dE (1.order)= 0.000E+00
 writing wavefunctions
