 vasp.5.4.1 05Feb16 (build Nov 22 2018 20:17:51) complex                        
  
 POSCAR found type information on POSCAR  Cu Ag
 03/POSCAR found :  2 types and      37 ions
 scaLAPACK will be used

 ----------------------------------------------------------------------------- 
|                                                                             |
|           W    W    AA    RRRRR   N    N  II  N    N   GGGG   !!!           |
|           W    W   A  A   R    R  NN   N  II  NN   N  G    G  !!!           |
|           W    W  A    A  R    R  N N  N  II  N N  N  G       !!!           |
|           W WW W  AAAAAA  RRRRR   N  N N  II  N  N N  G  GGG   !            |
|           WW  WW  A    A  R   R   N   NN  II  N   NN  G    G                |
|           W    W  A    A  R    R  N    N  II  N    N   GGGG   !!!           |
|                                                                             |
|      For optimal performance we recommend to set                            |
|        NCORE= 4 - approx SQRT( number of cores)                             |
|      NCORE specifies how many cores store one orbital (NPAR=cpu/NCORE).     |
|      This setting can  greatly improve the performance of VASP for DFT.     |
|      The default, NPAR=number of cores might be grossly inefficient         |
|      on modern multi-core architectures or massively parallel machines.     |
|      Do your own testing !!!!                                               |
|      Unfortunately you need to use the default for GW and RPA calculations. |
|      (for HF NCORE is supported but not extensively tested yet)             |
|                                                                             |
 ----------------------------------------------------------------------------- 

 LDA part: xc-table for Ceperly-Alder, standard interpolation
 POSCAR found type information on POSCAR  Cu Ag
 00/POSCAR found :  2 types and      37 ions
 POSCAR found type information on POSCAR  Cu Ag
 06/POSCAR found :  2 types and      37 ions
 Jacobian:    19.6723208379109     
 POSCAR, INCAR and KPOINTS ok, starting setup
 WARNING: small aliasing (wrap around) errors must be expected
 FFT: planning ...
 WAVECAR not read
 entering main loop
       N       E                     dE             d eps       ncg     rms          rms(c)
DAV:   1     0.307891433922E+04    0.30789E+04   -0.17793E+05  4464   0.177E+03
DAV:   2     0.170390782574E+03   -0.29085E+04   -0.27674E+04  4464   0.404E+02
DAV:   3    -0.143393986208E+03   -0.31378E+03   -0.29544E+03  4648   0.167E+02
DAV:   4    -0.155502245033E+03   -0.12108E+02   -0.11944E+02  4792   0.368E+01
DAV:   5    -0.155611896243E+03   -0.10965E+00   -0.10953E+00  4856   0.295E+00    0.397E+01
DAV:   6    -0.140926423470E+03    0.14685E+02   -0.31455E+02  4880   0.937E+01    0.200E+01
DAV:   7    -0.128046520001E+03    0.12880E+02   -0.60990E+01  5008   0.492E+01    0.302E+00
DAV:   8    -0.128600292626E+03   -0.55377E+00   -0.62263E+00  5080   0.363E+01    0.456E+00
DAV:   9    -0.128101198528E+03    0.49909E+00   -0.21495E+00  5608   0.289E+01    0.260E+00
DAV:  10    -0.127997125477E+03    0.10407E+00   -0.61420E-01  6168   0.104E+01    0.191E+00
DAV:  11    -0.127958722105E+03    0.38403E-01   -0.61441E-01  4672   0.603E+00    0.849E-01
DAV:  12    -0.127959192195E+03   -0.47009E-03   -0.10747E-01  4808   0.184E+00    0.626E-01
DAV:  13    -0.127951343681E+03    0.78485E-02   -0.40324E-02  4800   0.220E+00    0.378E-01
DAV:  14    -0.127947362952E+03    0.39807E-02   -0.16489E-02  4800   0.121E+00    0.206E-01
DAV:  15    -0.127943659070E+03    0.37039E-02   -0.11046E-02  4688   0.102E+00    0.187E-01
DAV:  16    -0.127941317567E+03    0.23415E-02   -0.56761E-03  4672   0.544E-01    0.809E-02
DAV:  17    -0.127940819040E+03    0.49853E-03   -0.18821E-03  4632   0.378E-01    0.646E-02
DAV:  18    -0.127941597414E+03   -0.77837E-03   -0.79677E-04  4624   0.273E-01    0.636E-02
DAV:  19    -0.127943584409E+03   -0.19870E-02   -0.12022E-03  4592   0.344E-01    0.465E-02
DAV:  20    -0.127945445231E+03   -0.18608E-02   -0.34821E-04  5072   0.181E-01    0.610E-02
DAV:  21    -0.127946083170E+03   -0.63794E-03   -0.59480E-04  4624   0.503E-01    0.267E-02
DAV:  22    -0.127946416364E+03   -0.33319E-03   -0.34341E-04  4664   0.861E-02    0.155E-02
DAV:  23    -0.127946473951E+03   -0.57587E-04   -0.65279E-05  4624   0.462E-02    0.225E-02
DAV:  24    -0.127946481614E+03   -0.76632E-05   -0.33013E-05  3464   0.388E-02
   1 F= -.12794648E+03 E0= -.12790698E+03  d E =-.127946E+03
quench:  g(F)=  0.000E+00 g(S)=  0.000E+00 dE (1.order)= 0.000E+00
 bond charge predicted
       N       E                     dE             d eps       ncg     rms          rms(c)
DAV:   1    -0.127949012759E+03   -0.25388E-02   -0.46965E-02  4608   0.484E-01    0.175E-02
DAV:   2    -0.127949194357E+03   -0.18160E-03   -0.60852E-04  6560   0.526E-01    0.455E-02
DAV:   3    -0.127949022308E+03    0.17205E-03   -0.23352E-04  4872   0.425E-01    0.100E-02
DAV:   4    -0.127949029865E+03   -0.75568E-05   -0.95503E-05  4752   0.535E-02
   2 F= -.12794903E+03 E0= -.12790956E+03  d E =-.254825E-02
quench:  g(F)=  0.000E+00 g(S)=  0.000E+00 dE (1.order)= 0.000E+00
 bond charge predicted
       N       E                     dE             d eps       ncg     rms          rms(c)
DAV:   1    -0.127970864612E+03   -0.21842E-01   -0.82310E+00  4464   0.591E+00    0.184E-01
DAV:   2    -0.127974417007E+03   -0.35524E-02   -0.44716E-02  4912   0.112E+00    0.176E-01
DAV:   3    -0.127974326011E+03    0.90997E-04   -0.63675E-03  4648   0.903E-01    0.988E-02
DAV:   4    -0.127974151807E+03    0.17420E-03   -0.92778E-04  4824   0.397E-01    0.578E-02
DAV:   5    -0.127974272368E+03   -0.12056E-03   -0.66725E-04  4888   0.651E-01    0.598E-02
DAV:   6    -0.127974098368E+03    0.17400E-03   -0.47891E-04  6904   0.576E-01    0.124E-02
DAV:   7    -0.127974086012E+03    0.12355E-04   -0.16004E-04  6256   0.155E-01    0.843E-03
DAV:   8    -0.127974090652E+03   -0.46400E-05   -0.78638E-05  4648   0.509E-02
   3 F= -.12797409E+03 E0= -.12793466E+03  d E =-.250608E-01
quench:  g(F)=  0.000E+00 g(S)=  0.000E+00 dE (1.order)= 0.000E+00
 bond charge predicted
       N       E                     dE             d eps       ncg     rms          rms(c)
DAV:   1    -0.127989371798E+03   -0.15286E-01   -0.23291E+01  4464   0.103E+01    0.296E-01
DAV:   2    -0.127996631579E+03   -0.72598E-02   -0.96019E-02  4896   0.171E+00    0.286E-01
DAV:   3    -0.127996181303E+03    0.45028E-03   -0.13892E-02  4816   0.142E+00    0.166E-01
DAV:   4    -0.127995960398E+03    0.22090E-03   -0.24231E-03  5040   0.104E+00    0.109E-01
DAV:   5    -0.127995691074E+03    0.26932E-03   -0.27686E-03  5096   0.141E+00    0.911E-02
DAV:   6    -0.127995338245E+03    0.35283E-03   -0.13643E-03  7096   0.646E-01    0.172E-02
DAV:   7    -0.127995371617E+03   -0.33372E-04   -0.49351E-04  4656   0.111E-01    0.169E-02
DAV:   8    -0.127995376376E+03   -0.47591E-05   -0.11138E-04  4696   0.662E-02    0.122E-02
DAV:   9    -0.127995370818E+03    0.55579E-05   -0.15569E-05  2808   0.305E-02
   4 F= -.12799537E+03 E0= -.12795582E+03  d E =-.212802E-01
quench:  g(F)=  0.000E+00 g(S)=  0.000E+00 dE (1.order)= 0.000E+00
 bond charge predicted
       N       E                     dE             d eps       ncg     rms          rms(c)
DAV:   1    -0.128005334867E+03   -0.99585E-02   -0.26763E+01  4464   0.111E+01    0.288E-01
DAV:   2    -0.128012527928E+03   -0.71931E-02   -0.95008E-02  4720   0.128E+00    0.238E-01
DAV:   3    -0.128012113762E+03    0.41417E-03   -0.77956E-03  4856   0.132E+00    0.181E-01
DAV:   4    -0.128012073365E+03    0.40397E-04   -0.35169E-03  5344   0.162E+00    0.125E-01
DAV:   5    -0.128011175268E+03    0.89810E-03   -0.30551E-03  7880   0.139E+00    0.630E-02
DAV:   6    -0.128011011427E+03    0.16384E-03   -0.11964E-03  6840   0.508E-01    0.218E-02
DAV:   7    -0.128011030979E+03   -0.19552E-04   -0.39119E-04  4752   0.109E-01    0.186E-02
DAV:   8    -0.128011030713E+03    0.26610E-06   -0.86872E-05  4576   0.626E-02
   5 F= -.12801103E+03 E0= -.12797118E+03  d E =-.156599E-01
quench:  g(F)=  0.000E+00 g(S)=  0.000E+00 dE (1.order)= 0.000E+00
 bond charge predicted
       N       E                     dE             d eps       ncg     rms          rms(c)
DAV:   1    -0.127999382468E+03    0.11649E-01   -0.68559E+01  4464   0.165E+01    0.442E-01
DAV:   2    -0.128030022494E+03   -0.30640E-01   -0.36485E-01  4704   0.210E+00    0.369E-01
DAV:   3    -0.128029396128E+03    0.62637E-03   -0.24221E-02  4832   0.187E+00    0.261E-01
DAV:   4    -0.128029050677E+03    0.34545E-03   -0.64604E-03  4904   0.197E+00    0.219E-01
DAV:   5    -0.128027877464E+03    0.11732E-02   -0.47506E-03  5704   0.184E+00    0.151E-01
DAV:   6    -0.128026992286E+03    0.88518E-03   -0.44861E-03  7088   0.926E-01    0.325E-02
DAV:   7    -0.128027082523E+03   -0.90237E-04   -0.13645E-03  4720   0.197E-01    0.305E-02
DAV:   8    -0.128027072345E+03    0.10178E-04   -0.15198E-04  4608   0.109E-01    0.199E-02
DAV:   9    -0.128027060810E+03    0.11535E-04   -0.74951E-05  4280   0.622E-02    0.790E-03
DAV:  10    -0.128027062087E+03   -0.12763E-05   -0.18751E-05  3184   0.444E-02
   6 F= -.12802706E+03 E0= -.12798698E+03  d E =-.160314E-01
quench:  g(F)=  0.000E+00 g(S)=  0.000E+00 dE (1.order)= 0.000E+00
 bond charge predicted
       N       E                     dE             d eps       ncg     rms          rms(c)
DAV:   1    -0.127891666479E+03    0.13539E+00   -0.23987E+02  4464   0.290E+01    0.826E-01
DAV:   2    -0.128046037847E+03   -0.15437E+00   -0.17577E+00  4800   0.453E+00    0.754E-01
DAV:   3    -0.128042869294E+03    0.31686E-02   -0.10901E-01  4752   0.337E+00    0.456E-01
DAV:   4    -0.128040913408E+03    0.19559E-02   -0.17328E-02  4784   0.245E+00    0.387E-01
DAV:   5    -0.128039876294E+03    0.10371E-02   -0.12809E-02  5104   0.292E+00    0.330E-01
DAV:   6    -0.128035535031E+03    0.43413E-02   -0.15100E-02  7288   0.195E+00    0.587E-02
DAV:   7    -0.128035938169E+03   -0.40314E-03   -0.57014E-03  5408   0.556E-01    0.633E-02
DAV:   8    -0.128035892035E+03    0.46133E-04   -0.13668E-03  4632   0.378E-01    0.442E-02
DAV:   9    -0.128035861911E+03    0.30124E-04   -0.25686E-04  4784   0.150E-01    0.253E-02
DAV:  10    -0.128035859781E+03    0.21300E-05   -0.21921E-04  4752   0.140E-01    0.196E-02
DAV:  11    -0.128035861566E+03   -0.17855E-05   -0.77441E-05  4648   0.572E-02
   7 F= -.12803586E+03 E0= -.12799504E+03  d E =-.879948E-02
quench:  g(F)=  0.000E+00 g(S)=  0.000E+00 dE (1.order)= 0.000E+00
 bond charge predicted
       N       E                     dE             d eps       ncg     rms          rms(c)
DAV:   1    -0.127885955402E+03    0.14990E+00   -0.23699E+02  4464   0.272E+01    0.740E-01
DAV:   2    -0.128056498672E+03   -0.17054E+00   -0.18651E+00  4752   0.391E+00    0.672E-01
DAV:   3    -0.128053279008E+03    0.32197E-02   -0.82848E-02  4792   0.266E+00    0.433E-01
DAV:   4    -0.128051667296E+03    0.16117E-02   -0.12628E-02  4904   0.213E+00    0.374E-01
DAV:   5    -0.128049442817E+03    0.22245E-02   -0.80897E-03  5200   0.220E+00    0.291E-01
DAV:   6    -0.128046318816E+03    0.31240E-02   -0.12419E-02  6896   0.152E+00    0.654E-02
DAV:   7    -0.128046587489E+03   -0.26867E-03   -0.45119E-03  5680   0.519E-01    0.515E-02
DAV:   8    -0.128046577114E+03    0.10375E-04   -0.91939E-04  4592   0.267E-01    0.396E-02
DAV:   9    -0.128046543982E+03    0.33131E-04   -0.22083E-04  4712   0.143E-01    0.175E-02
DAV:  10    -0.128046554501E+03   -0.10519E-04   -0.15638E-04  4744   0.938E-02    0.136E-02
DAV:  11    -0.128046555130E+03   -0.62872E-06   -0.40998E-05  3632   0.448E-02
   8 F= -.12804656E+03 E0= -.12800535E+03  d E =-.106936E-01
quench:  g(F)=  0.000E+00 g(S)=  0.000E+00 dE (1.order)= 0.000E+00
 bond charge predicted
       N       E                     dE             d eps       ncg     rms          rms(c)
DAV:   1    -0.127931089909E+03    0.11546E+00   -0.29566E+02  4464   0.348E+01    0.111E+00
DAV:   2    -0.128113178541E+03   -0.18209E+00   -0.20867E+00  5488   0.898E+00    0.128E+00
DAV:   3    -0.128094300222E+03    0.18878E-01   -0.23221E-01  4784   0.710E+00    0.562E-01
DAV:   4    -0.128092625683E+03    0.16745E-02   -0.41396E-02  4952   0.425E+00    0.531E-01
DAV:   5    -0.128084074418E+03    0.85513E-02   -0.26982E-02  4960   0.320E+00    0.290E-01
DAV:   6    -0.128083460862E+03    0.61356E-03   -0.32749E-02  5104   0.105E+00    0.160E-01
DAV:   7    -0.128083225863E+03    0.23500E-03   -0.52548E-03  4736   0.849E-01    0.921E-02
DAV:   8    -0.128083075952E+03    0.14991E-03   -0.14689E-03  4800   0.371E-01    0.326E-02
DAV:   9    -0.128083116513E+03   -0.40561E-04   -0.76484E-04  4528   0.194E-01    0.227E-02
DAV:  10    -0.128083119855E+03   -0.33425E-05   -0.84481E-05  4536   0.113E-01
   9 F= -.12808312E+03 E0= -.12804274E+03  d E =-.365647E-01
quench:  g(F)=  0.000E+00 g(S)=  0.000E+00 dE (1.order)= 0.000E+00
 bond charge predicted
       N       E                     dE             d eps       ncg     rms          rms(c)
DAV:   1    -0.127871346470E+03    0.21177E+00   -0.35558E+02  4464   0.372E+01    0.108E+00
DAV:   2    -0.128101169491E+03   -0.22982E+00   -0.25888E+00  5768   0.773E+00    0.117E+00
DAV:   3    -0.128088056174E+03    0.13113E-01   -0.20121E-01  4776   0.635E+00    0.596E-01
DAV:   4    -0.128085142808E+03    0.29134E-02   -0.39047E-02  5088   0.414E+00    0.550E-01
DAV:   5    -0.128077693962E+03    0.74488E-02   -0.24688E-02  5072   0.345E+00    0.360E-01
DAV:   6    -0.128074886571E+03    0.28074E-02   -0.37677E-02  5912   0.139E+00    0.129E-01
DAV:   7    -0.128074903198E+03   -0.16628E-04   -0.58098E-03  4760   0.740E-01    0.949E-02
DAV:   8    -0.128074908382E+03   -0.51837E-05   -0.29201E-03  4720   0.481E-01    0.444E-02
DAV:   9    -0.128074916430E+03   -0.80477E-05   -0.60999E-04  4640   0.178E-01    0.258E-02
DAV:  10    -0.128074917923E+03   -0.14933E-05   -0.86413E-05  4656   0.137E-01
  10 F= -.12807492E+03 E0= -.12803488E+03  d E =0.820193E-02
quench:  g(F)=  0.000E+00 g(S)=  0.000E+00 dE (1.order)= 0.000E+00
 bond charge predicted
       N       E                     dE             d eps       ncg     rms          rms(c)
DAV:   1    -0.128047712855E+03    0.27204E-01   -0.68063E+01  4504   0.153E+01    0.384E-01
DAV:   2    -0.128087038780E+03   -0.39326E-01   -0.42813E-01  4720   0.216E+00    0.362E-01
DAV:   3    -0.128085975747E+03    0.10630E-02   -0.20542E-02  4736   0.153E+00    0.236E-01
DAV:   4    -0.128085311097E+03    0.66465E-03   -0.33724E-03  5032   0.112E+00    0.198E-01
DAV:   5    -0.128085437677E+03   -0.12658E-03   -0.38432E-03  5304   0.168E+00    0.177E-01
DAV:   6    -0.128083897160E+03    0.15405E-02   -0.42758E-03  7536   0.112E+00    0.323E-02
DAV:   7    -0.128084022060E+03   -0.12490E-03   -0.14996E-03  4648   0.190E-01    0.320E-02
DAV:   8    -0.128084004947E+03    0.17114E-04   -0.17269E-04  4776   0.132E-01    0.207E-02
DAV:   9    -0.128083995572E+03    0.93748E-05   -0.31825E-05  3568   0.499E-02
  11 F= -.12808400E+03 E0= -.12804373E+03  d E =-.907765E-02
quench:  g(F)=  0.000E+00 g(S)=  0.000E+00 dE (1.order)= 0.000E+00
 bond charge predicted
       N       E                     dE             d eps       ncg     rms          rms(c)
DAV:   1    -0.128082417366E+03    0.15876E-02   -0.32233E+01  4464   0.109E+01    0.273E-01
DAV:   2    -0.128099337938E+03   -0.16921E-01   -0.18638E-01  4824   0.155E+00    0.257E-01
DAV:   3    -0.128099061704E+03    0.27623E-03   -0.11385E-02  4840   0.122E+00    0.173E-01
DAV:   4    -0.128098816300E+03    0.24540E-03   -0.22900E-03  4984   0.108E+00    0.144E-01
DAV:   5    -0.128098591360E+03    0.22494E-03   -0.20806E-03  5296   0.124E+00    0.117E-01
DAV:   6    -0.128098049605E+03    0.54175E-03   -0.21524E-03  7200   0.673E-01    0.333E-02
DAV:   7    -0.128098072816E+03   -0.23212E-04   -0.61147E-04  5064   0.170E-01    0.189E-02
DAV:   8    -0.128098070840E+03    0.19764E-05   -0.13041E-04  4608   0.834E-02    0.135E-02
DAV:   9    -0.128098067571E+03    0.32685E-05   -0.27302E-05  3288   0.438E-02
  12 F= -.12809807E+03 E0= -.12805800E+03  d E =-.140720E-01
quench:  g(F)=  0.000E+00 g(S)=  0.000E+00 dE (1.order)= 0.000E+00
 bond charge predicted
       N       E                     dE             d eps       ncg     rms          rms(c)
DAV:   1    -0.128095224280E+03    0.28466E-02   -0.10880E+01  4464   0.719E+00    0.203E-01
DAV:   2    -0.128097745783E+03   -0.25215E-02   -0.36244E-02  4768   0.931E-01    0.168E-01
DAV:   3    -0.128097675568E+03    0.70215E-04   -0.51109E-03  4800   0.107E+00    0.138E-01
DAV:   4    -0.128097677674E+03   -0.21067E-05   -0.21452E-03  5552   0.123E+00    0.104E-01
DAV:   5    -0.128097072212E+03    0.60546E-03   -0.14502E-03  7984   0.948E-01    0.329E-02
DAV:   6    -0.128097057436E+03    0.14776E-04   -0.41790E-04  6672   0.229E-01    0.150E-02
DAV:   7    -0.128097064250E+03   -0.68145E-05   -0.14183E-04  4688   0.690E-02    0.123E-02
DAV:   8    -0.128097063534E+03    0.71662E-06   -0.19819E-05  2664   0.349E-02
  13 F= -.12809706E+03 E0= -.12805732E+03  d E =0.100404E-02
quench:  g(F)=  0.000E+00 g(S)=  0.000E+00 dE (1.order)= 0.000E+00
 bond charge predicted
       N       E                     dE             d eps       ncg     rms          rms(c)
DAV:   1    -0.128076112602E+03    0.20952E-01   -0.27615E+01  4464   0.988E+00    0.246E-01
DAV:   2    -0.128091156067E+03   -0.15043E-01   -0.16603E-01  4696   0.127E+00    0.210E-01
DAV:   3    -0.128090924298E+03    0.23177E-03   -0.79860E-03  4616   0.820E-01    0.150E-01
DAV:   4    -0.128090618467E+03    0.30583E-03   -0.13116E-03  4736   0.659E-01    0.117E-01
DAV:   5    -0.128090884474E+03   -0.26601E-03   -0.16920E-03  5656   0.111E+00    0.117E-01
DAV:   6    -0.128090181481E+03    0.70299E-03   -0.15483E-03  7752   0.921E-01    0.249E-02
DAV:   7    -0.128090203957E+03   -0.22475E-04   -0.50903E-04  5920   0.169E-01    0.171E-02
DAV:   8    -0.128090200832E+03    0.31250E-05   -0.12158E-04  4640   0.852E-02    0.126E-02
DAV:   9    -0.128090198521E+03    0.23108E-05   -0.17821E-05  2832   0.387E-02
  14 F= -.12809020E+03 E0= -.12805050E+03  d E =0.686501E-02
quench:  g(F)=  0.000E+00 g(S)=  0.000E+00 dE (1.order)= 0.000E+00
 bond charge predicted
       N       E                     dE             d eps       ncg     rms          rms(c)
DAV:   1    -0.128062901845E+03    0.27299E-01   -0.44502E+01  4512   0.144E+01    0.437E-01
DAV:   2    -0.128075160277E+03   -0.12258E-01   -0.17207E-01  5016   0.256E+00    0.432E-01
DAV:   3    -0.128073833268E+03    0.13270E-02   -0.31150E-02  4672   0.223E+00    0.243E-01
DAV:   4    -0.128073879194E+03   -0.45926E-04   -0.64975E-03  5368   0.179E+00    0.187E-01
DAV:   5    -0.128072184016E+03    0.16952E-02   -0.64250E-03  5328   0.209E+00    0.975E-02
DAV:   6    -0.128071919625E+03    0.26439E-03   -0.27379E-03  6328   0.739E-01    0.323E-02
DAV:   7    -0.128071990819E+03   -0.71194E-04   -0.10729E-03  4688   0.191E-01    0.248E-02
DAV:   8    -0.128071991910E+03   -0.10908E-05   -0.19709E-04  4552   0.103E-01    0.167E-02
DAV:   9    -0.128071983569E+03    0.83413E-05   -0.33982E-05  3512   0.477E-02
  15 F= -.12807198E+03 E0= -.12803239E+03  d E =0.182150E-01
quench:  g(F)=  0.000E+00 g(S)=  0.000E+00 dE (1.order)= 0.000E+00
 bond charge predicted
       N       E                     dE             d eps       ncg     rms          rms(c)
DAV:   1    -0.128080450359E+03   -0.84584E-02   -0.36320E+01  4464   0.130E+01    0.372E-01
DAV:   2    -0.128092420265E+03   -0.11970E-01   -0.15556E-01  4568   0.210E+00    0.357E-01
DAV:   3    -0.128091945310E+03    0.47496E-03   -0.21417E-02  4776   0.186E+00    0.215E-01
DAV:   4    -0.128092126077E+03   -0.18077E-03   -0.51043E-03  5312   0.179E+00    0.177E-01
DAV:   5    -0.128090630401E+03    0.14957E-02   -0.44413E-03  5608   0.184E+00    0.832E-02
DAV:   6    -0.128090407235E+03    0.22317E-03   -0.21698E-03  7288   0.619E-01    0.262E-02
DAV:   7    -0.128090453190E+03   -0.45955E-04   -0.72158E-04  4688   0.139E-01    0.219E-02
DAV:   8    -0.128090451405E+03    0.17846E-05   -0.11545E-04  4576   0.848E-02    0.157E-02
DAV:   9    -0.128090443146E+03    0.82595E-05   -0.24797E-05  3368   0.460E-02
  16 F= -.12809044E+03 E0= -.12805046E+03  d E =-.184596E-01
quench:  g(F)=  0.000E+00 g(S)=  0.000E+00 dE (1.order)= 0.000E+00
 bond charge predicted
       N       E                     dE             d eps       ncg     rms          rms(c)
DAV:   1    -0.128088290306E+03    0.21611E-02   -0.38560E+00  4464   0.422E+00    0.121E-01
DAV:   2    -0.128089340849E+03   -0.10505E-02   -0.14719E-02  4584   0.560E-01    0.999E-02
DAV:   3    -0.128089294547E+03    0.46302E-04   -0.19439E-03  4824   0.499E-01    0.737E-02
DAV:   4    -0.128089141076E+03    0.15347E-03   -0.36046E-04  5344   0.284E-01    0.239E-02
DAV:   5    -0.128089189093E+03   -0.48017E-04   -0.21302E-04  6832   0.306E-01    0.285E-02
DAV:   6    -0.128089132752E+03    0.56341E-04   -0.11754E-04  4712   0.274E-01    0.597E-03
DAV:   7    -0.128089135586E+03   -0.28338E-05   -0.47742E-05  4432   0.391E-02
  17 F= -.12808914E+03 E0= -.12804941E+03  d E =0.130756E-02
quench:  g(F)=  0.000E+00 g(S)=  0.000E+00 dE (1.order)= 0.000E+00
 bond charge predicted
       N       E                     dE             d eps       ncg     rms          rms(c)
DAV:   1    -0.128029116724E+03    0.60016E-01   -0.99445E+01  4464   0.178E+01    0.454E-01
DAV:   2    -0.128091193668E+03   -0.62077E-01   -0.67615E-01  4680   0.220E+00    0.395E-01
DAV:   3    -0.128089634438E+03    0.15592E-02   -0.24448E-02  4776   0.131E+00    0.272E-01
DAV:   4    -0.128088965387E+03    0.66905E-03   -0.44384E-03  5152   0.142E+00    0.238E-01
DAV:   5    -0.128087982962E+03    0.98242E-03   -0.43440E-03  5680   0.171E+00    0.175E-01
DAV:   6    -0.128086641833E+03    0.13411E-02   -0.52601E-03  7416   0.114E+00    0.369E-02
DAV:   7    -0.128086759449E+03   -0.11762E-03   -0.16913E-03  5464   0.286E-01    0.322E-02
DAV:   8    -0.128086746808E+03    0.12641E-04   -0.29286E-04  4672   0.119E-01    0.235E-02
DAV:   9    -0.128086734579E+03    0.12229E-04   -0.95380E-05  4896   0.849E-02    0.908E-03
DAV:  10    -0.128086738070E+03   -0.34909E-05   -0.23976E-05  3296   0.402E-02
  18 F= -.12808674E+03 E0= -.12804712E+03  d E =0.239752E-02
quench:  g(F)=  0.000E+00 g(S)=  0.000E+00 dE (1.order)= 0.000E+00
 bond charge predicted
       N       E                     dE             d eps       ncg     rms          rms(c)
DAV:   1    -0.127962704753E+03    0.12403E+00   -0.18620E+02  4464   0.247E+01    0.656E-01
DAV:   2    -0.128091280924E+03   -0.12858E+00   -0.13916E+00  5552   0.406E+00    0.675E-01
DAV:   3    -0.128086859708E+03    0.44212E-02   -0.65792E-02  4824   0.294E+00    0.403E-01
DAV:   4    -0.128085154062E+03    0.17056E-02   -0.10746E-02  5152   0.188E+00    0.348E-01
DAV:   5    -0.128084365161E+03    0.78890E-03   -0.90561E-03  5168   0.241E+00    0.295E-01
DAV:   6    -0.128080713385E+03    0.36518E-02   -0.12993E-02  7056   0.153E+00    0.502E-02
DAV:   7    -0.128081121808E+03   -0.40842E-03   -0.46010E-03  4632   0.350E-01    0.565E-02
DAV:   8    -0.128081065981E+03    0.55827E-04   -0.58467E-04  4696   0.246E-01    0.339E-02
DAV:   9    -0.128081045428E+03    0.20553E-04   -0.10099E-04  4944   0.100E-01    0.185E-02
DAV:  10    -0.128081050396E+03   -0.49682E-05   -0.13045E-04  4736   0.969E-02    0.133E-02
DAV:  11    -0.128081052547E+03   -0.21504E-05   -0.35091E-05  3688   0.462E-02
  19 F= -.12808105E+03 E0= -.12804181E+03  d E =0.568552E-02
quench:  g(F)=  0.000E+00 g(S)=  0.000E+00 dE (1.order)= 0.000E+00
 bond charge predicted
       N       E                     dE             d eps       ncg     rms          rms(c)
DAV:   1    -0.127877607367E+03    0.20344E+00   -0.33471E+02  4464   0.352E+01    0.995E-01
DAV:   2    -0.128091557112E+03   -0.21395E+00   -0.24133E+00  5392   0.590E+00    0.987E-01
DAV:   3    -0.128081641099E+03    0.99160E-02   -0.14492E-01  4864   0.463E+00    0.560E-01
DAV:   4    -0.128077948638E+03    0.36925E-02   -0.23746E-02  5144   0.294E+00    0.467E-01
DAV:   5    -0.128076990530E+03    0.95811E-03   -0.22193E-02  5072   0.383E+00    0.404E-01
DAV:   6    -0.128069850335E+03    0.71402E-02   -0.25701E-02  7272   0.238E+00    0.679E-02
DAV:   7    -0.128070620503E+03   -0.77017E-03   -0.94164E-03  4608   0.553E-01    0.844E-02
DAV:   8    -0.128070548942E+03    0.71560E-04   -0.16258E-03  4608   0.408E-01    0.538E-02
DAV:   9    -0.128070488418E+03    0.60524E-04   -0.24095E-04  5048   0.143E-01    0.286E-02
DAV:  10    -0.128070491421E+03   -0.30025E-05   -0.27212E-04  4888   0.149E-01    0.195E-02
DAV:  11    -0.128070496225E+03   -0.48038E-05   -0.93040E-05  4656   0.759E-02
  20 F= -.12807050E+03 E0= -.12803056E+03  d E =0.105563E-01
quench:  g(F)=  0.000E+00 g(S)=  0.000E+00 dE (1.order)= 0.000E+00
 bond charge predicted
       N       E                     dE             d eps       ncg     rms          rms(c)
DAV:   1    -0.127754472515E+03    0.31602E+00   -0.38433E+02  4464   0.422E+01    0.140E+00
DAV:   2    -0.128016001649E+03   -0.26153E+00   -0.31306E+00  5000   0.101E+01    0.145E+00
DAV:   3    -0.128006020326E+03    0.99813E-02   -0.40744E-01  4768   0.863E+00    0.671E-01
DAV:   4    -0.128012826604E+03   -0.68063E-02   -0.85659E-02  4936   0.645E+00    0.676E-01
DAV:   5    -0.127996119882E+03    0.16707E-01   -0.43392E-02  4936   0.502E+00    0.334E-01
DAV:   6    -0.127995209225E+03    0.91066E-03   -0.32384E-02  4920   0.135E+00    0.141E-01
DAV:   7    -0.127995541877E+03   -0.33265E-03   -0.87557E-03  4808   0.899E-01    0.114E-01
DAV:   8    -0.127995453980E+03    0.87898E-04   -0.27891E-03  4600   0.498E-01    0.523E-02
DAV:   9    -0.127995392123E+03    0.61856E-04   -0.43794E-04  5448   0.250E-01    0.184E-02
DAV:  10    -0.127995417019E+03   -0.24895E-04   -0.28401E-04  4680   0.998E-02    0.162E-02
DAV:  11    -0.127995420270E+03   -0.32507E-05   -0.76419E-05  4464   0.931E-02
  21 F= -.12799542E+03 E0= -.12795342E+03  d E =0.750760E-01
quench:  g(F)=  0.000E+00 g(S)=  0.000E+00 dE (1.order)= 0.000E+00
 bond charge predicted
       N       E                     dE             d eps       ncg     rms          rms(c)
DAV:   1    -0.128081474789E+03   -0.86058E-01   -0.66892E+01  4464   0.170E+01    0.549E-01
DAV:   2    -0.128121403760E+03   -0.39929E-01   -0.47777E-01  4896   0.415E+00    0.615E-01
DAV:   3    -0.128118787774E+03    0.26160E-02   -0.55622E-02  4792   0.298E+00    0.266E-01
DAV:   4    -0.128119977770E+03   -0.11900E-02   -0.96907E-03  4912   0.214E+00    0.261E-01
DAV:   5    -0.128117627262E+03    0.23505E-02   -0.83865E-03  4808   0.235E+00    0.159E-01
DAV:   6    -0.128117005642E+03    0.62162E-03   -0.42310E-03  5440   0.729E-01    0.324E-02
DAV:   7    -0.128117089853E+03   -0.84211E-04   -0.14878E-03  4680   0.256E-01    0.272E-02
DAV:   8    -0.128117127825E+03   -0.37972E-04   -0.60839E-04  4680   0.170E-01    0.206E-02
DAV:   9    -0.128117121985E+03    0.58392E-05   -0.78988E-05  4568   0.760E-02
  22 F= -.12811712E+03 E0= -.12807610E+03  d E =-.121702E+00
quench:  g(F)=  0.000E+00 g(S)=  0.000E+00 dE (1.order)= 0.000E+00
 bond charge predicted
       N       E                     dE             d eps       ncg     rms          rms(c)
DAV:   1    -0.128128112975E+03   -0.10985E-01   -0.16059E+01  4472   0.855E+00    0.263E-01
DAV:   2    -0.128135441419E+03   -0.73284E-02   -0.89476E-02  4696   0.160E+00    0.251E-01
DAV:   3    -0.128135394091E+03    0.47328E-04   -0.12691E-02  4784   0.125E+00    0.141E-01
DAV:   4    -0.128135020336E+03    0.37376E-03   -0.13693E-03  4672   0.508E-01    0.690E-02
DAV:   5    -0.128135419948E+03   -0.39961E-03   -0.12844E-03  4992   0.930E-01    0.930E-02
DAV:   6    -0.128134898697E+03    0.52125E-03   -0.79608E-04  5288   0.763E-01    0.909E-03
DAV:   7    -0.128134929632E+03   -0.30935E-04   -0.34224E-04  4680   0.861E-02    0.124E-02
DAV:   8    -0.128134931903E+03   -0.22711E-05   -0.59576E-05  4576   0.604E-02
  23 F= -.12813493E+03 E0= -.12809446E+03  d E =-.178099E-01
quench:  g(F)=  0.000E+00 g(S)=  0.000E+00 dE (1.order)= 0.000E+00
 bond charge predicted
       N       E                     dE             d eps       ncg     rms          rms(c)
DAV:   1    -0.128136941237E+03   -0.20116E-02   -0.97303E-01  4472   0.213E+00    0.601E-02
DAV:   2    -0.128137293896E+03   -0.35266E-03   -0.42241E-03  4568   0.310E-01    0.519E-02
DAV:   3    -0.128137295176E+03   -0.12802E-05   -0.55806E-04  4824   0.270E-01    0.379E-02
DAV:   4    -0.128137261637E+03    0.33539E-04   -0.74218E-05  5016   0.155E-01    0.139E-02
DAV:   5    -0.128137282615E+03   -0.20978E-04   -0.75466E-05  3760   0.243E-01    0.200E-02
DAV:   6    -0.128137256191E+03    0.26424E-04   -0.35863E-05  2800   0.173E-01    0.229E-03
DAV:   7    -0.128137257910E+03   -0.17184E-05   -0.18764E-05  2648   0.230E-02
  24 F= -.12813726E+03 E0= -.12809684E+03  d E =-.232601E-02
quench:  g(F)=  0.000E+00 g(S)=  0.000E+00 dE (1.order)= 0.000E+00
 bond charge predicted
       N       E                     dE             d eps       ncg     rms          rms(c)
DAV:   1    -0.128140059890E+03   -0.28037E-02   -0.13069E+01  4464   0.766E+00    0.209E-01
DAV:   2    -0.128143829421E+03   -0.37695E-02   -0.48709E-02  4632   0.999E-01    0.177E-01
DAV:   3    -0.128143806861E+03    0.22561E-04   -0.58252E-03  4840   0.114E+00    0.139E-01
DAV:   4    -0.128143638377E+03    0.16848E-03   -0.19144E-03  5152   0.117E+00    0.968E-02
DAV:   5    -0.128143182170E+03    0.45621E-03   -0.14080E-03  7504   0.939E-01    0.413E-02
DAV:   6    -0.128143127846E+03    0.54324E-04   -0.65914E-04  6704   0.320E-01    0.135E-02
DAV:   7    -0.128143143108E+03   -0.15262E-04   -0.22053E-04  4648   0.772E-02    0.139E-02
DAV:   8    -0.128143141654E+03    0.14542E-05   -0.28338E-05  3032   0.447E-02
  25 F= -.12814314E+03 E0= -.12810293E+03  d E =-.588374E-02
quench:  g(F)=  0.000E+00 g(S)=  0.000E+00 dE (1.order)= 0.000E+00
 bond charge predicted
       N       E                     dE             d eps       ncg     rms          rms(c)
DAV:   1    -0.127941562129E+03    0.20158E+00   -0.32860E+02  4464   0.405E+01    0.125E+00
DAV:   2    -0.128084388903E+03   -0.14283E+00   -0.17922E+00  4944   0.977E+00    0.149E+00
DAV:   3    -0.128065557180E+03    0.18832E-01   -0.28927E-01  4808   0.787E+00    0.667E-01
DAV:   4    -0.128082456602E+03   -0.16899E-01   -0.79105E-02  5320   0.705E+00    0.761E-01
DAV:   5    -0.128048750677E+03    0.33706E-01   -0.58184E-02  5168   0.574E+00    0.213E-01
DAV:   6    -0.128051867062E+03   -0.31164E-02   -0.40446E-02  4728   0.108E+00    0.224E-01
DAV:   7    -0.128051437724E+03    0.42934E-03   -0.69516E-03  4624   0.900E-01    0.102E-01
DAV:   8    -0.128051212632E+03    0.22509E-03   -0.47823E-04  7896   0.258E-01    0.515E-02
DAV:   9    -0.128051191880E+03    0.20752E-04   -0.66850E-04  5672   0.128E-01    0.248E-02
DAV:  10    -0.128051193045E+03   -0.11652E-05   -0.15492E-04  4664   0.155E-01    0.177E-02
DAV:  11    -0.128051191658E+03    0.13872E-05   -0.57169E-05  4496   0.910E-02
  26 F= -.12805119E+03 E0= -.12801004E+03  d E =0.919500E-01
quench:  g(F)=  0.000E+00 g(S)=  0.000E+00 dE (1.order)= 0.000E+00
 bond charge predicted
       N       E                     dE             d eps       ncg     rms          rms(c)
DAV:   1    -0.128096219990E+03   -0.45027E-01   -0.17183E+02  4464   0.290E+01    0.964E-01
DAV:   2    -0.128178034073E+03   -0.81814E-01   -0.10062E+00  4776   0.627E+00    0.974E-01
DAV:   3    -0.128172708091E+03    0.53260E-02   -0.16527E-01  4808   0.532E+00    0.489E-01
DAV:   4    -0.128179617353E+03   -0.69093E-02   -0.29938E-02  5160   0.436E+00    0.445E-01
DAV:   5    -0.128167244052E+03    0.12373E-01   -0.25796E-02  4960   0.427E+00    0.194E-01
DAV:   6    -0.128167092492E+03    0.15156E-03   -0.11064E-02  5096   0.110E+00    0.853E-02
DAV:   7    -0.128167275388E+03   -0.18290E-03   -0.40599E-03  4824   0.477E-01    0.438E-02
DAV:   8    -0.128167310016E+03   -0.34627E-04   -0.99223E-04  4592   0.233E-01    0.302E-02
DAV:   9    -0.128167299017E+03    0.10999E-04   -0.22089E-04  4672   0.102E-01    0.157E-02
DAV:  10    -0.128167292112E+03    0.69048E-05   -0.23710E-05  2984   0.846E-02
  27 F= -.12816729E+03 E0= -.12812700E+03  d E =-.116100E+00
quench:  g(F)=  0.000E+00 g(S)=  0.000E+00 dE (1.order)= 0.000E+00
 bond charge predicted
       N       E                     dE             d eps       ncg     rms          rms(c)
DAV:   1    -0.128171452185E+03   -0.41532E-02   -0.21942E+00  4464   0.318E+00    0.926E-02
DAV:   2    -0.128172311621E+03   -0.85944E-03   -0.10678E-02  4584   0.465E-01    0.762E-02
DAV:   3    -0.128172309124E+03    0.24966E-05   -0.11052E-03  4848   0.383E-01    0.544E-02
DAV:   4    -0.128172237710E+03    0.71414E-04   -0.17856E-04  4712   0.255E-01    0.223E-02
DAV:   5    -0.128172276451E+03   -0.38740E-04   -0.13280E-04  4952   0.318E-01    0.280E-02
DAV:   6    -0.128172226805E+03    0.49645E-04   -0.81861E-05  3072   0.255E-01    0.407E-03
DAV:   7    -0.128172228522E+03   -0.17170E-05   -0.30730E-05  2936   0.463E-02
  28 F= -.12817223E+03 E0= -.12813197E+03  d E =-.493641E-02
quench:  g(F)=  0.000E+00 g(S)=  0.000E+00 dE (1.order)= 0.000E+00
 bond charge predicted
       N       E                     dE             d eps       ncg     rms          rms(c)
DAV:   1    -0.128173514894E+03   -0.12881E-02   -0.20143E+00  4464   0.302E+00    0.839E-02
DAV:   2    -0.128174289859E+03   -0.77497E-03   -0.94045E-03  4560   0.449E-01    0.713E-02
DAV:   3    -0.128174339835E+03   -0.49975E-04   -0.12028E-03  4616   0.521E-01    0.588E-02
DAV:   4    -0.128174296117E+03    0.43718E-04   -0.37080E-04  4728   0.489E-01    0.391E-02
DAV:   5    -0.128174237796E+03    0.58321E-04   -0.14994E-04  4784   0.339E-01    0.181E-02
DAV:   6    -0.128174229047E+03    0.87495E-05   -0.10284E-04  5984   0.128E-01    0.518E-03
DAV:   7    -0.128174231904E+03   -0.28575E-05   -0.42085E-05  4352   0.481E-02
  29 F= -.12817423E+03 E0= -.12813412E+03  d E =-.200338E-02
quench:  g(F)=  0.000E+00 g(S)=  0.000E+00 dE (1.order)= 0.000E+00
 bond charge predicted
       N       E                     dE             d eps       ncg     rms          rms(c)
DAV:   1    -0.128174852076E+03   -0.62303E-03   -0.16022E+00  4480   0.266E+00    0.695E-02
DAV:   2    -0.128175362109E+03   -0.51003E-03   -0.63832E-03  4552   0.317E-01    0.564E-02
DAV:   3    -0.128175365936E+03   -0.38267E-05   -0.59862E-04  4632   0.369E-01    0.480E-02
DAV:   4    -0.128175333409E+03    0.32526E-04   -0.21733E-04  4808   0.385E-01    0.319E-02
DAV:   5    -0.128175296132E+03    0.37277E-04   -0.12042E-04  4152   0.299E-01    0.178E-02
DAV:   6    -0.128175286767E+03    0.93650E-05   -0.10661E-04  6112   0.129E-01    0.566E-03
DAV:   7    -0.128175287682E+03   -0.91534E-06   -0.24501E-05  2912   0.321E-02
  30 F= -.12817529E+03 E0= -.12813530E+03  d E =-.105578E-02
quench:  g(F)=  0.000E+00 g(S)=  0.000E+00 dE (1.order)= 0.000E+00
 bond charge predicted
       N       E                     dE             d eps       ncg     rms          rms(c)
DAV:   1    -0.128177991037E+03   -0.27043E-02   -0.15359E+01  4504   0.843E+00    0.223E-01
DAV:   2    -0.128180768218E+03   -0.27772E-02   -0.42822E-02  4680   0.863E-01    0.179E-01
DAV:   3    -0.128180507937E+03    0.26028E-03   -0.43309E-03  4848   0.112E+00    0.148E-01
DAV:   4    -0.128180323494E+03    0.18444E-03   -0.23672E-03  5944   0.134E+00    0.895E-02
DAV:   5    -0.128179734923E+03    0.58857E-03   -0.19446E-03  8432   0.986E-01    0.375E-02
DAV:   6    -0.128179691506E+03    0.43417E-04   -0.54124E-04  6680   0.308E-01    0.154E-02
DAV:   7    -0.128179701638E+03   -0.10132E-04   -0.18795E-04  4592   0.767E-02    0.120E-02
DAV:   8    -0.128179700748E+03    0.88984E-06   -0.28568E-05  3136   0.394E-02
  31 F= -.12817970E+03 E0= -.12813986E+03  d E =-.441307E-02
quench:  g(F)=  0.000E+00 g(S)=  0.000E+00 dE (1.order)= 0.000E+00
 bond charge predicted
       N       E                     dE             d eps       ncg     rms          rms(c)
DAV:   1    -0.128002763645E+03    0.17694E+00   -0.20506E+02  4464   0.315E+01    0.103E+00
DAV:   2    -0.128097342945E+03   -0.94579E-01   -0.11954E+00  4944   0.752E+00    0.115E+00
DAV:   3    -0.128084766707E+03    0.12576E-01   -0.19343E-01  4856   0.570E+00    0.490E-01
DAV:   4    -0.128088082739E+03   -0.33160E-02   -0.31280E-02  6256   0.360E+00    0.410E-01
DAV:   5    -0.128079166109E+03    0.89166E-02   -0.30324E-02  4936   0.449E+00    0.268E-01
DAV:   6    -0.128077825430E+03    0.13407E-02   -0.13516E-02  5480   0.151E+00    0.993E-02
DAV:   7    -0.128078015989E+03   -0.19056E-03   -0.51791E-03  4920   0.611E-01    0.517E-02
DAV:   8    -0.128078107346E+03   -0.91356E-04   -0.17737E-03  4736   0.291E-01    0.339E-02
DAV:   9    -0.128078111524E+03   -0.41780E-05   -0.46356E-04  4616   0.138E-01    0.179E-02
DAV:  10    -0.128078113361E+03   -0.18372E-05   -0.70001E-05  4688   0.108E-01
  32 F= -.12807811E+03 E0= -.12803727E+03  d E =0.101587E+00
quench:  g(F)=  0.000E+00 g(S)=  0.000E+00 dE (1.order)= 0.000E+00
 bond charge predicted
       N       E                     dE             d eps       ncg     rms          rms(c)
DAV:   1    -0.128137101609E+03   -0.58990E-01   -0.26967E+01  4464   0.112E+01    0.338E-01
DAV:   2    -0.128149749803E+03   -0.12648E-01   -0.15086E-01  4600   0.208E+00    0.340E-01
DAV:   3    -0.128149601974E+03    0.14783E-03   -0.19029E-02  4800   0.178E+00    0.195E-01
DAV:   4    -0.128150423701E+03   -0.82173E-03   -0.51974E-03  5016   0.187E+00    0.187E-01
DAV:   5    -0.128148662962E+03    0.17607E-02   -0.34561E-03  5304   0.169E+00    0.575E-02
DAV:   6    -0.128148564114E+03    0.98849E-04   -0.12696E-03  7008   0.459E-01    0.222E-02
DAV:   7    -0.128148598778E+03   -0.34665E-04   -0.58362E-04  4688   0.168E-01    0.232E-02
DAV:   8    -0.128148602879E+03   -0.41010E-05   -0.13269E-04  4576   0.754E-02    0.190E-02
DAV:   9    -0.128148594120E+03    0.87596E-05   -0.25463E-05  3080   0.602E-02
  33 F= -.12814859E+03 E0= -.12810790E+03  d E =-.704808E-01
quench:  g(F)=  0.000E+00 g(S)=  0.000E+00 dE (1.order)= 0.000E+00
 bond charge predicted
       N       E                     dE             d eps       ncg     rms          rms(c)
DAV:   1    -0.128163346927E+03   -0.14744E-01   -0.11001E+01  4464   0.716E+00    0.211E-01
DAV:   2    -0.128168061379E+03   -0.47145E-02   -0.56845E-02  4728   0.119E+00    0.195E-01
DAV:   3    -0.128168137270E+03   -0.75891E-04   -0.70652E-03  4768   0.114E+00    0.130E-01
DAV:   4    -0.128168276531E+03   -0.13926E-03   -0.21500E-03  4912   0.121E+00    0.110E-01
DAV:   5    -0.128167693671E+03    0.58286E-03   -0.12351E-03  5496   0.101E+00    0.368E-02
DAV:   6    -0.128167644167E+03    0.49504E-04   -0.49250E-04  7368   0.301E-01    0.118E-02
DAV:   7    -0.128167656142E+03   -0.11976E-04   -0.21385E-04  4600   0.103E-01    0.135E-02
DAV:   8    -0.128167657766E+03   -0.16233E-05   -0.51486E-05  4536   0.456E-02
  34 F= -.12816766E+03 E0= -.12812719E+03  d E =-.190636E-01
quench:  g(F)=  0.000E+00 g(S)=  0.000E+00 dE (1.order)= 0.000E+00
 bond charge predicted
       N       E                     dE             d eps       ncg     rms          rms(c)
DAV:   1    -0.128169894161E+03   -0.22380E-02   -0.26408E+00  4544   0.352E+00    0.102E-01
DAV:   2    -0.128170884961E+03   -0.99080E-03   -0.12164E-02  4520   0.522E-01    0.862E-02
DAV:   3    -0.128170929405E+03   -0.44444E-04   -0.14972E-03  4736   0.571E-01    0.699E-02
DAV:   4    -0.128170905337E+03    0.24068E-04   -0.55099E-04  4856   0.614E-01    0.507E-02
DAV:   5    -0.128170792941E+03    0.11240E-03   -0.26049E-04  5304   0.466E-01    0.162E-02
DAV:   6    -0.128170778560E+03    0.14381E-04   -0.84120E-05  4568   0.147E-01    0.563E-03
DAV:   7    -0.128170784330E+03   -0.57693E-05   -0.77998E-05  4696   0.565E-02
  35 F= -.12817078E+03 E0= -.12813056E+03  d E =-.312656E-02
quench:  g(F)=  0.000E+00 g(S)=  0.000E+00 dE (1.order)= 0.000E+00
 bond charge predicted
       N       E                     dE             d eps       ncg     rms          rms(c)
DAV:   1    -0.128170986449E+03   -0.20789E-03   -0.19033E-01  4528   0.920E-01    0.249E-02
DAV:   2    -0.128171062870E+03   -0.76421E-04   -0.86700E-04  4656   0.144E-01    0.224E-02
DAV:   3    -0.128171069316E+03   -0.64465E-05   -0.13290E-04  4816   0.177E-01    0.188E-02
DAV:   4    -0.128171062663E+03    0.66530E-05   -0.27782E-05  2888   0.136E-01
  36 F= -.12817106E+03 E0= -.12813093E+03  d E =-.278333E-03
quench:  g(F)=  0.000E+00 g(S)=  0.000E+00 dE (1.order)= 0.000E+00
 bond charge predicted
       N       E                     dE             d eps       ncg     rms          rms(c)
DAV:   1    -0.128170348525E+03    0.72079E-03   -0.62592E-01  4544   0.167E+00    0.455E-02
DAV:   2    -0.128170553762E+03   -0.20524E-03   -0.24652E-03  4592   0.252E-01    0.394E-02
DAV:   3    -0.128170576580E+03   -0.22818E-04   -0.41203E-04  4648   0.349E-01    0.364E-02
DAV:   4    -0.128170535065E+03    0.41515E-04   -0.89858E-05  4632   0.241E-01    0.164E-02
DAV:   5    -0.128170528201E+03    0.68637E-05   -0.41058E-05  3480   0.131E-01
  37 F= -.12817053E+03 E0= -.12813049E+03  d E =0.534462E-03
quench:  g(F)=  0.000E+00 g(S)=  0.000E+00 dE (1.order)= 0.000E+00
 bond charge predicted
       N       E                     dE             d eps       ncg     rms          rms(c)
DAV:   1    -0.128166777174E+03    0.37579E-02   -0.33142E+00  4528   0.377E+00    0.931E-02
DAV:   2    -0.128167859606E+03   -0.10824E-02   -0.13230E-02  4584   0.386E-01    0.731E-02
DAV:   3    -0.128167779484E+03    0.80122E-04   -0.61083E-04  4960   0.269E-01    0.533E-02
DAV:   4    -0.128167725732E+03    0.53752E-04   -0.22053E-04  4832   0.318E-01    0.368E-02
DAV:   5    -0.128167771933E+03   -0.46200E-04   -0.28451E-04  6008   0.452E-01    0.386E-02
DAV:   6    -0.128167680698E+03    0.91235E-04   -0.17450E-04  6152   0.316E-01    0.751E-03
DAV:   7    -0.128167684500E+03   -0.38017E-05   -0.61045E-05  4464   0.425E-02
  38 F= -.12816768E+03 E0= -.12812774E+03  d E =0.284370E-02
quench:  g(F)=  0.000E+00 g(S)=  0.000E+00 dE (1.order)= 0.000E+00
 bond charge predicted
       N       E                     dE             d eps       ncg     rms          rms(c)
DAV:   1    -0.128096828325E+03    0.70852E-01   -0.14041E+02  4464   0.256E+01    0.707E-01
DAV:   2    -0.128139892790E+03   -0.43064E-01   -0.57128E-01  4648   0.385E+00    0.693E-01
DAV:   3    -0.128135500246E+03    0.43925E-02   -0.61342E-02  4744   0.346E+00    0.403E-01
DAV:   4    -0.128136873222E+03   -0.13730E-02   -0.18793E-02  6080   0.343E+00    0.345E-01
DAV:   5    -0.128129815766E+03    0.70575E-02   -0.17560E-02  5696   0.358E+00    0.185E-01
DAV:   6    -0.128129184516E+03    0.63125E-03   -0.10038E-02  6800   0.113E+00    0.719E-02
DAV:   7    -0.128129193852E+03   -0.93362E-05   -0.22139E-03  5024   0.327E-01    0.401E-02
DAV:   8    -0.128129233803E+03   -0.39951E-04   -0.92832E-04  4552   0.193E-01    0.328E-02
DAV:   9    -0.128129217679E+03    0.16124E-04   -0.18604E-04  4648   0.110E-01    0.170E-02
DAV:  10    -0.128129217218E+03    0.46128E-06   -0.39627E-05  3856   0.898E-02
  39 F= -.12812922E+03 E0= -.12808773E+03  d E =0.384673E-01
quench:  g(F)=  0.000E+00 g(S)=  0.000E+00 dE (1.order)= 0.000E+00
 bond charge predicted
       N       E                     dE             d eps       ncg     rms          rms(c)
DAV:   1    -0.128146175691E+03   -0.16958E-01   -0.13483E+01  4464   0.803E+00    0.239E-01
DAV:   2    -0.128150254248E+03   -0.40786E-02   -0.53499E-02  4560   0.115E+00    0.193E-01
DAV:   3    -0.128150526027E+03   -0.27178E-03   -0.80231E-03  4784   0.142E+00    0.173E-01
DAV:   4    -0.128150427566E+03    0.98461E-04   -0.30019E-03  4976   0.152E+00    0.115E-01
DAV:   5    -0.128149619323E+03    0.80824E-03   -0.15417E-03  8056   0.102E+00    0.374E-02
DAV:   6    -0.128149613553E+03    0.57707E-05   -0.51984E-04  6136   0.234E-01    0.149E-02
DAV:   7    -0.128149625707E+03   -0.12154E-04   -0.20308E-04  4640   0.794E-02    0.129E-02
DAV:   8    -0.128149624648E+03    0.10583E-05   -0.20003E-05  2712   0.364E-02
  40 F= -.12814962E+03 E0= -.12810919E+03  d E =-.204074E-01
quench:  g(F)=  0.000E+00 g(S)=  0.000E+00 dE (1.order)= 0.000E+00
 bond charge predicted
       N       E                     dE             d eps       ncg     rms          rms(c)
DAV:   1    -0.128150212267E+03   -0.58656E-03   -0.31364E+00  4496   0.387E+00    0.115E-01
DAV:   2    -0.128151291733E+03   -0.10795E-02   -0.13421E-02  4680   0.563E-01    0.924E-02
DAV:   3    -0.128151356671E+03   -0.64937E-04   -0.17661E-03  4664   0.642E-01    0.840E-02
DAV:   4    -0.128151347813E+03    0.88576E-05   -0.69157E-04  4912   0.718E-01    0.580E-02
DAV:   5    -0.128151163267E+03    0.18455E-03   -0.30789E-04  5904   0.497E-01    0.192E-02
DAV:   6    -0.128151159845E+03    0.34218E-05   -0.11250E-04  5952   0.114E-01    0.796E-03
DAV:   7    -0.128151161723E+03   -0.18784E-05   -0.42559E-05  4128   0.378E-02
  41 F= -.12815116E+03 E0= -.12811125E+03  d E =-.153707E-02
quench:  g(F)=  0.000E+00 g(S)=  0.000E+00 dE (1.order)= 0.000E+00
 bond charge predicted
       N       E                     dE             d eps       ncg     rms          rms(c)
DAV:   1    -0.128150837920E+03    0.32193E-03   -0.39421E-01  4552   0.131E+00    0.374E-02
DAV:   2    -0.128150988232E+03   -0.15031E-03   -0.18979E-03  4528   0.176E-01    0.298E-02
DAV:   3    -0.128150987159E+03    0.10727E-05   -0.18796E-04  4640   0.149E-01    0.221E-02
DAV:   4    -0.128150975731E+03    0.11428E-04   -0.30244E-05  3792   0.971E-02    0.111E-02
DAV:   5    -0.128150980748E+03   -0.50162E-05   -0.21084E-05  2664   0.123E-01
  42 F= -.12815098E+03 E0= -.12811095E+03  d E =0.180976E-03
quench:  g(F)=  0.000E+00 g(S)=  0.000E+00 dE (1.order)= 0.000E+00
 bond charge predicted
       N       E                     dE             d eps       ncg     rms          rms(c)
DAV:   1    -0.128151204539E+03   -0.22881E-03   -0.23332E-01  4560   0.103E+00    0.303E-02
DAV:   2    -0.128151308578E+03   -0.10404E-03   -0.12704E-03  4576   0.155E-01    0.234E-02
DAV:   3    -0.128151309750E+03   -0.11713E-05   -0.11985E-04  4528   0.129E-01    0.182E-02
DAV:   4    -0.128151304394E+03    0.53560E-05   -0.24645E-05  2640   0.114E-01
  43 F= -.12815130E+03 E0= -.12811116E+03  d E =-.323646E-03
quench:  g(F)=  0.000E+00 g(S)=  0.000E+00 dE (1.order)= 0.000E+00
 bond charge predicted
       N       E                     dE             d eps       ncg     rms          rms(c)
DAV:   1    -0.128151957523E+03   -0.64777E-03   -0.95767E-02  4544   0.691E-01    0.217E-02
DAV:   2    -0.128152020532E+03   -0.63009E-04   -0.28012E-04  5032   0.342E-01    0.331E-02
DAV:   3    -0.128151960377E+03    0.60154E-04   -0.13228E-04  4800   0.287E-01    0.128E-02
DAV:   4    -0.128151961397E+03   -0.10194E-05   -0.80892E-05  4688   0.561E-02
  44 F= -.12815196E+03 E0= -.12811181E+03  d E =-.657003E-03
quench:  g(F)=  0.000E+00 g(S)=  0.000E+00 dE (1.order)= 0.000E+00
 bond charge predicted
       N       E                     dE             d eps       ncg     rms          rms(c)
DAV:   1    -0.128150464858E+03    0.14955E-02   -0.14384E+01  4464   0.796E+00    0.212E-01
DAV:   2    -0.128155007740E+03   -0.45429E-02   -0.58601E-02  4624   0.948E-01    0.173E-01
DAV:   3    -0.128154817384E+03    0.19036E-03   -0.51630E-03  4688   0.877E-01    0.130E-01
DAV:   4    -0.128154609554E+03    0.20783E-03   -0.14255E-03  4888   0.911E-01    0.891E-02
DAV:   5    -0.128154555496E+03    0.54059E-04   -0.15107E-03  5472   0.106E+00    0.758E-02
DAV:   6    -0.128154263852E+03    0.29164E-03   -0.99326E-04  8112   0.560E-01    0.171E-02
DAV:   7    -0.128154275338E+03   -0.11486E-04   -0.24386E-04  4888   0.887E-02    0.122E-02
DAV:   8    -0.128154275164E+03    0.17380E-06   -0.47377E-05  4312   0.490E-02
  45 F= -.12815428E+03 E0= -.12811409E+03  d E =-.231377E-02
quench:  g(F)=  0.000E+00 g(S)=  0.000E+00 dE (1.order)= 0.000E+00
 bond charge predicted
       N       E                     dE             d eps       ncg     rms          rms(c)
DAV:   1    -0.128151228630E+03    0.30467E-02   -0.68376E+00  4464   0.530E+00    0.142E-01
DAV:   2    -0.128154065533E+03   -0.28369E-02   -0.34341E-02  4744   0.756E-01    0.126E-01
DAV:   3    -0.128154025807E+03    0.39726E-04   -0.32362E-03  4808   0.626E-01    0.867E-02
DAV:   4    -0.128153934547E+03    0.91260E-04   -0.67743E-04  4800   0.550E-01    0.656E-02
DAV:   5    -0.128153916184E+03    0.18363E-04   -0.60971E-04  5072   0.672E-01    0.544E-02
DAV:   6    -0.128153779484E+03    0.13670E-03   -0.48713E-04  7960   0.430E-01    0.137E-02
DAV:   7    -0.128153778084E+03    0.13995E-05   -0.15564E-04  5800   0.103E-01    0.884E-03
DAV:   8    -0.128153779698E+03   -0.16141E-05   -0.51044E-05  4608   0.401E-02
  46 F= -.12815378E+03 E0= -.12811344E+03  d E =0.495466E-03
quench:  g(F)=  0.000E+00 g(S)=  0.000E+00 dE (1.order)= 0.000E+00
 bond charge predicted
       N       E                     dE             d eps       ncg     rms          rms(c)
DAV:   1    -0.128149525550E+03    0.42525E-02   -0.43814E+00  4464   0.457E+00    0.123E-01
DAV:   2    -0.128149910932E+03   -0.38538E-03   -0.85854E-03  4496   0.382E-01    0.904E-02
DAV:   3    -0.128149742495E+03    0.16844E-03   -0.99504E-04  5048   0.584E-01    0.803E-02
DAV:   4    -0.128149694454E+03    0.48040E-04   -0.85429E-04  7288   0.714E-01    0.356E-02
DAV:   5    -0.128149576492E+03    0.11796E-03   -0.29287E-04  6912   0.377E-01    0.216E-02
DAV:   6    -0.128149568382E+03    0.81093E-05   -0.87806E-05  5136   0.911E-02
  47 F= -.12814957E+03 E0= -.12810932E+03  d E =0.421132E-02
quench:  g(F)=  0.000E+00 g(S)=  0.000E+00 dE (1.order)= 0.000E+00
 bond charge predicted
       N       E                     dE             d eps       ncg     rms          rms(c)
DAV:   1    -0.128122919683E+03    0.26657E-01   -0.85558E+01  4464   0.203E+01    0.557E-01
DAV:   2    -0.128134053983E+03   -0.11134E-01   -0.20721E-01  4864   0.239E+00    0.487E-01
DAV:   3    -0.128132104829E+03    0.19492E-02   -0.29424E-02  4808   0.299E+00    0.349E-01
DAV:   4    -0.128133070421E+03   -0.96559E-03   -0.16344E-02  7656   0.345E+00    0.252E-01
DAV:   5    -0.128127069634E+03    0.60008E-02   -0.13365E-02  8456   0.254E+00    0.121E-01
DAV:   6    -0.128127031706E+03    0.37928E-04   -0.38762E-03  5496   0.603E-01    0.712E-02
DAV:   7    -0.128127005828E+03    0.25878E-04   -0.11568E-03  4616   0.271E-01    0.336E-02
DAV:   8    -0.128126995114E+03    0.10713E-04   -0.28004E-04  4712   0.939E-02    0.220E-02
DAV:   9    -0.128126988148E+03    0.69668E-05   -0.51920E-05  4560   0.850E-02
  48 F= -.12812699E+03 E0= -.12808709E+03  d E =0.225802E-01
quench:  g(F)=  0.000E+00 g(S)=  0.000E+00 dE (1.order)= 0.000E+00
 bond charge predicted
       N       E                     dE             d eps       ncg     rms          rms(c)
DAV:   1    -0.128092961509E+03    0.34034E-01   -0.42359E+01  4464   0.132E+01    0.357E-01
DAV:   2    -0.128112517977E+03   -0.19556E-01   -0.22572E-01  4840   0.227E+00    0.376E-01
DAV:   3    -0.128111838256E+03    0.67972E-03   -0.23398E-02  4728   0.166E+00    0.211E-01
DAV:   4    -0.128110969193E+03    0.86906E-03   -0.30535E-03  4776   0.712E-01    0.141E-01
DAV:   5    -0.128111360992E+03   -0.39180E-03   -0.28674E-03  5432   0.129E+00    0.128E-01
DAV:   6    -0.128110590835E+03    0.77016E-03   -0.23819E-03  5640   0.131E+00    0.367E-02
DAV:   7    -0.128110512442E+03    0.78393E-04   -0.84537E-04  6688   0.375E-01    0.169E-02
DAV:   8    -0.128110536322E+03   -0.23880E-04   -0.38436E-04  4696   0.102E-01    0.180E-02
DAV:   9    -0.128110530296E+03    0.60256E-05   -0.38520E-05  4320   0.557E-02
  49 F= -.12811053E+03 E0= -.12807020E+03  d E =0.164579E-01
quench:  g(F)=  0.000E+00 g(S)=  0.000E+00 dE (1.order)= 0.000E+00
 bond charge predicted
       N       E                     dE             d eps       ncg     rms          rms(c)
DAV:   1    -0.128080903406E+03    0.29633E-01   -0.11030E+02  4464   0.230E+01    0.640E-01
DAV:   2    -0.128102033280E+03   -0.21130E-01   -0.33237E-01  4792   0.312E+00    0.580E-01
DAV:   3    -0.128100057911E+03    0.19754E-02   -0.47643E-02  4792   0.368E+00    0.396E-01
DAV:   4    -0.128100209882E+03   -0.15197E-03   -0.18977E-02  5880   0.377E+00    0.313E-01
DAV:   5    -0.128093242807E+03    0.69671E-02   -0.15356E-02  7760   0.285E+00    0.117E-01
DAV:   6    -0.128093492734E+03   -0.24993E-03   -0.71342E-03  5568   0.735E-01    0.732E-02
DAV:   7    -0.128093491295E+03    0.14388E-05   -0.15694E-03  4608   0.299E-01    0.383E-02
DAV:   8    -0.128093490931E+03    0.36441E-06   -0.48952E-04  4672   0.143E-01    0.294E-02
DAV:   9    -0.128093478547E+03    0.12384E-04   -0.10096E-04  4568   0.110E-01    0.178E-02
DAV:  10    -0.128093472771E+03    0.57751E-05   -0.28619E-05  3416   0.925E-02
  50 F= -.12809347E+03 E0= -.12805350E+03  d E =0.170575E-01
quench:  g(F)=  0.000E+00 g(S)=  0.000E+00 dE (1.order)= 0.000E+00
 bond charge predicted
       N       E                     dE             d eps       ncg     rms          rms(c)
DAV:   1    -0.128095744109E+03   -0.22656E-02   -0.55343E-01  4464   0.160E+00    0.432E-02
DAV:   2    -0.128095877115E+03   -0.13301E-03   -0.18679E-03  4584   0.183E-01    0.340E-02
DAV:   3    -0.128095870283E+03    0.68323E-05   -0.21511E-04  4640   0.179E-01    0.271E-02
DAV:   4    -0.128095856152E+03    0.14131E-04   -0.55154E-05  4616   0.168E-01    0.148E-02
DAV:   5    -0.128095858375E+03   -0.22237E-05   -0.51559E-05  2976   0.202E-01
  51 F= -.12809586E+03 E0= -.12805591E+03  d E =-.238560E-02
quench:  g(F)=  0.000E+00 g(S)=  0.000E+00 dE (1.order)= 0.000E+00
 bond charge predicted
       N       E                     dE             d eps       ncg     rms          rms(c)
DAV:   1    -0.128092028808E+03    0.38273E-02   -0.31349E+00  4464   0.384E+00    0.108E-01
DAV:   2    -0.128092549026E+03   -0.52022E-03   -0.86201E-03  4672   0.434E-01    0.846E-02
DAV:   3    -0.128092500515E+03    0.48511E-04   -0.12107E-03  4856   0.513E-01    0.731E-02
DAV:   4    -0.128092462988E+03    0.37527E-04   -0.51480E-04  5096   0.592E-01    0.440E-02
DAV:   5    -0.128092342506E+03    0.12048E-03   -0.38628E-04  7424   0.484E-01    0.175E-02
DAV:   6    -0.128092334692E+03    0.78134E-05   -0.11874E-04  5656   0.141E-01    0.626E-03
DAV:   7    -0.128092337803E+03   -0.31102E-05   -0.44345E-05  4344   0.297E-02
  52 F= -.12809234E+03 E0= -.12805259E+03  d E =0.352057E-02
quench:  g(F)=  0.000E+00 g(S)=  0.000E+00 dE (1.order)= 0.000E+00
 bond charge predicted
       N       E                     dE             d eps       ncg     rms          rms(c)
DAV:   1    -0.128081877889E+03    0.10457E-01   -0.13259E+01  4464   0.792E+00    0.211E-01
DAV:   2    -0.128083505543E+03   -0.16277E-02   -0.30282E-02  4560   0.676E-01    0.159E-01
DAV:   3    -0.128082855724E+03    0.64982E-03   -0.24286E-03  4864   0.718E-01    0.117E-01
DAV:   4    -0.128082742415E+03    0.11331E-03   -0.17247E-03  7184   0.937E-01    0.513E-02
DAV:   5    -0.128082591506E+03    0.15091E-03   -0.11049E-03  7664   0.835E-01    0.483E-02
DAV:   6    -0.128082469053E+03    0.12245E-03   -0.21707E-04  5736   0.354E-01    0.130E-02
DAV:   7    -0.128082475692E+03   -0.66394E-05   -0.12947E-04  4608   0.638E-02    0.861E-03
DAV:   8    -0.128082475350E+03    0.34220E-06   -0.17325E-05  2672   0.314E-02
  53 F= -.12808248E+03 E0= -.12804280E+03  d E =0.986245E-02
quench:  g(F)=  0.000E+00 g(S)=  0.000E+00 dE (1.order)= 0.000E+00
 bond charge predicted
       N       E                     dE             d eps       ncg     rms          rms(c)
DAV:   1    -0.128052856584E+03    0.29619E-01   -0.77510E+01  4464   0.192E+01    0.524E-01
DAV:   2    -0.128064587279E+03   -0.11731E-01   -0.20325E-01  4624   0.208E+00    0.444E-01
DAV:   3    -0.128062175097E+03    0.24122E-02   -0.22054E-02  4832   0.240E+00    0.315E-01
DAV:   4    -0.128063523733E+03   -0.13486E-02   -0.13700E-02  7600   0.312E+00    0.237E-01
DAV:   5    -0.128058483109E+03    0.50406E-02   -0.11388E-02  8432   0.257E+00    0.113E-01
DAV:   6    -0.128058289969E+03    0.19314E-03   -0.29860E-03  6328   0.690E-01    0.561E-02
DAV:   7    -0.128058287632E+03    0.23370E-05   -0.98684E-04  4888   0.238E-01    0.255E-02
DAV:   8    -0.128058289781E+03   -0.21489E-05   -0.27991E-04  4624   0.105E-01    0.183E-02
DAV:   9    -0.128058286662E+03    0.31193E-05   -0.45603E-05  4560   0.860E-02
  54 F= -.12805829E+03 E0= -.12801878E+03  d E =0.241887E-01
quench:  g(F)=  0.000E+00 g(S)=  0.000E+00 dE (1.order)= 0.000E+00
 bond charge predicted
       N       E                     dE             d eps       ncg     rms          rms(c)
DAV:   1    -0.127956344365E+03    0.10195E+00   -0.21650E+02  4464   0.322E+01    0.925E-01
DAV:   2    -0.128013703518E+03   -0.57359E-01   -0.82314E-01  5120   0.523E+00    0.884E-01
DAV:   3    -0.128009033441E+03    0.46701E-02   -0.11154E-01  4800   0.562E+00    0.541E-01
DAV:   4    -0.128008284201E+03    0.74924E-03   -0.36452E-02  5472   0.503E+00    0.464E-01
DAV:   5    -0.127995607456E+03    0.12677E-01   -0.27324E-02  6320   0.384E+00    0.192E-01
DAV:   6    -0.127996524093E+03   -0.91664E-03   -0.20872E-02  5536   0.116E+00    0.131E-01
DAV:   7    -0.127996366321E+03    0.15777E-03   -0.37877E-03  4568   0.588E-01    0.594E-02
DAV:   8    -0.127996386558E+03   -0.20238E-04   -0.13897E-03  4592   0.239E-01    0.442E-02
DAV:   9    -0.127996365784E+03    0.20774E-04   -0.37733E-04  4544   0.176E-01    0.239E-02
DAV:  10    -0.127996356119E+03    0.96648E-05   -0.54158E-05  4168   0.128E-01
  55 F= -.12799636E+03 E0= -.12795693E+03  d E =0.619305E-01
quench:  g(F)=  0.000E+00 g(S)=  0.000E+00 dE (1.order)= 0.000E+00
 bond charge predicted
       N       E                     dE             d eps       ncg     rms          rms(c)
DAV:   1    -0.128028093047E+03   -0.31727E-01   -0.72488E+01  4464   0.185E+01    0.526E-01
DAV:   2    -0.128045836152E+03   -0.17743E-01   -0.25996E-01  4888   0.267E+00    0.480E-01
DAV:   3    -0.128044067728E+03    0.17684E-02   -0.31960E-02  4792   0.260E+00    0.304E-01
DAV:   4    -0.128045008714E+03   -0.94099E-03   -0.11414E-02  5216   0.286E+00    0.259E-01
DAV:   5    -0.128040768835E+03    0.42399E-02   -0.99869E-03  6720   0.257E+00    0.123E-01
DAV:   6    -0.128040573130E+03    0.19570E-03   -0.52117E-03  6680   0.812E-01    0.494E-02
DAV:   7    -0.128040610482E+03   -0.37351E-04   -0.13450E-03  4632   0.248E-01    0.268E-02
DAV:   8    -0.128040619961E+03   -0.94794E-05   -0.37731E-04  4680   0.138E-01    0.202E-02
DAV:   9    -0.128040615187E+03    0.47746E-05   -0.51948E-05  4416   0.887E-02
  56 F= -.12804062E+03 E0= -.12800131E+03  d E =-.442591E-01
quench:  g(F)=  0.000E+00 g(S)=  0.000E+00 dE (1.order)= 0.000E+00
 bond charge predicted
       N       E                     dE             d eps       ncg     rms          rms(c)
DAV:   1    -0.128038017032E+03    0.26029E-02   -0.20292E+00  4512   0.309E+00    0.865E-02
DAV:   2    -0.128038374490E+03   -0.35746E-03   -0.58562E-03  4632   0.332E-01    0.655E-02
DAV:   3    -0.128038363428E+03    0.11062E-04   -0.73714E-04  4648   0.435E-01    0.597E-02
DAV:   4    -0.128038310998E+03    0.52430E-04   -0.40491E-04  4776   0.534E-01    0.408E-02
DAV:   5    -0.128038239928E+03    0.71071E-04   -0.23647E-04  6888   0.379E-01    0.107E-02
DAV:   6    -0.128038233227E+03    0.67002E-05   -0.61739E-05  4048   0.115E-01
  57 F= -.12803823E+03 E0= -.12799895E+03  d E =0.238196E-02
quench:  g(F)=  0.000E+00 g(S)=  0.000E+00 dE (1.order)= 0.000E+00
 bond charge predicted
       N       E                     dE             d eps       ncg     rms          rms(c)
DAV:   1    -0.128028080991E+03    0.10159E-01   -0.13485E+01  4464   0.803E+00    0.219E-01
DAV:   2    -0.128029591332E+03   -0.15103E-02   -0.29888E-02  4592   0.764E-01    0.171E-01
DAV:   3    -0.128029072188E+03    0.51914E-03   -0.38647E-03  4880   0.854E-01    0.138E-01
DAV:   4    -0.128028613251E+03    0.45894E-03   -0.19651E-03  6816   0.558E-01    0.415E-02
DAV:   5    -0.128028637559E+03   -0.24308E-04   -0.44633E-04  7248   0.421E-01    0.478E-02
DAV:   6    -0.128028544084E+03    0.93475E-04   -0.16036E-04  4696   0.322E-01    0.200E-02
DAV:   7    -0.128028541112E+03    0.29719E-05   -0.10275E-04  4696   0.529E-02    0.723E-03
DAV:   8    -0.128028541012E+03    0.99884E-07   -0.12966E-05  2664   0.334E-02
  58 F= -.12802854E+03 E0= -.12798928E+03  d E =0.969222E-02
quench:  g(F)=  0.000E+00 g(S)=  0.000E+00 dE (1.order)= 0.000E+00
 bond charge predicted
       N       E                     dE             d eps       ncg     rms          rms(c)
DAV:   1    -0.128027118407E+03    0.14227E-02   -0.26845E-01  4464   0.112E+00    0.305E-02
DAV:   2    -0.128027161667E+03   -0.43260E-04   -0.72255E-04  4760   0.118E-01    0.237E-02
DAV:   3    -0.128027157891E+03    0.37753E-05   -0.90850E-05  4736   0.151E-01
  59 F= -.12802716E+03 E0= -.12798791E+03  d E =0.138312E-02
quench:  g(F)=  0.000E+00 g(S)=  0.000E+00 dE (1.order)= 0.000E+00
 bond charge predicted
       N       E                     dE             d eps       ncg     rms          rms(c)
DAV:   1    -0.128026135750E+03    0.10259E-02   -0.14627E-01  4560   0.858E-01    0.300E-02
DAV:   2    -0.128026252504E+03   -0.11675E-03   -0.49604E-04  5704   0.456E-01    0.445E-02
DAV:   3    -0.128026137323E+03    0.11518E-03   -0.24841E-04  4752   0.400E-01    0.189E-02
DAV:   4    -0.128026139357E+03   -0.20340E-05   -0.14027E-04  4584   0.894E-02    0.128E-02
DAV:   5    -0.128026136533E+03    0.28243E-05   -0.43282E-05  4160   0.707E-02
  60 F= -.12802614E+03 E0= -.12798690E+03  d E =0.102136E-02
quench:  g(F)=  0.000E+00 g(S)=  0.000E+00 dE (1.order)= 0.000E+00
 bond charge predicted
       N       E                     dE             d eps       ncg     rms          rms(c)
DAV:   1    -0.128023125067E+03    0.30143E-02   -0.10785E+00  4464   0.225E+00    0.600E-02
DAV:   2    -0.128023303590E+03   -0.17852E-03   -0.29175E-03  4576   0.211E-01    0.451E-02
DAV:   3    -0.128023259659E+03    0.43931E-04   -0.21687E-04  4904   0.206E-01    0.332E-02
DAV:   4    -0.128023260140E+03   -0.48093E-06   -0.13664E-04  4744   0.314E-01    0.207E-02
DAV:   5    -0.128023230090E+03    0.30050E-04   -0.89519E-05  2928   0.272E-01    0.130E-02
DAV:   6    -0.128023221888E+03    0.82017E-05   -0.32284E-05  2952   0.106E-01
  61 F= -.12802322E+03 E0= -.12798402E+03  d E =0.291464E-02
quench:  g(F)=  0.000E+00 g(S)=  0.000E+00 dE (1.order)= 0.000E+00
 bond charge predicted
       N       E                     dE             d eps       ncg     rms          rms(c)
DAV:   1    -0.128013068074E+03    0.10162E-01   -0.97989E+00  4464   0.684E+00    0.185E-01
DAV:   2    -0.128014217804E+03   -0.11497E-02   -0.22206E-02  4576   0.654E-01    0.143E-01
DAV:   3    -0.128013936878E+03    0.28093E-03   -0.30354E-03  4864   0.805E-01    0.121E-01
DAV:   4    -0.128013722838E+03    0.21404E-03   -0.14641E-03  6640   0.835E-01    0.588E-02
DAV:   5    -0.128013583923E+03    0.13892E-03   -0.91725E-04  6736   0.750E-01    0.387E-02
DAV:   6    -0.128013513815E+03    0.70108E-04   -0.24440E-04  6520   0.291E-01    0.119E-02
DAV:   7    -0.128013521255E+03   -0.74402E-05   -0.11785E-04  4592   0.499E-02    0.881E-03
DAV:   8    -0.128013520930E+03    0.32516E-06   -0.15436E-05  2680   0.355E-02
  62 F= -.12801352E+03 E0= -.12797447E+03  d E =0.970096E-02
quench:  g(F)=  0.000E+00 g(S)=  0.000E+00 dE (1.order)= 0.000E+00
 bond charge predicted
       N       E                     dE             d eps       ncg     rms          rms(c)
DAV:   1    -0.127994211537E+03    0.19310E-01   -0.35734E+01  4464   0.131E+01    0.366E-01
DAV:   2    -0.127998375008E+03   -0.41635E-02   -0.83065E-02  4600   0.143E+00    0.301E-01
DAV:   3    -0.127997460960E+03    0.91405E-03   -0.12645E-02  4848   0.172E+00    0.230E-01
DAV:   4    -0.127998035484E+03   -0.57452E-03   -0.70860E-03  7240   0.218E+00    0.162E-01
DAV:   5    -0.127995697631E+03    0.23379E-02   -0.51193E-03  8392   0.174E+00    0.762E-02
DAV:   6    -0.127995629606E+03    0.68024E-04   -0.12224E-03  6176   0.392E-01    0.394E-02
DAV:   7    -0.127995623255E+03    0.63512E-05   -0.41016E-04  4600   0.127E-01    0.163E-02
DAV:   8    -0.127995621913E+03    0.13426E-05   -0.76732E-05  4624   0.628E-02
  63 F= -.12799562E+03 E0= -.12795693E+03  d E =0.178990E-01
quench:  g(F)=  0.000E+00 g(S)=  0.000E+00 dE (1.order)= 0.000E+00
 bond charge predicted
       N       E                     dE             d eps       ncg     rms          rms(c)
DAV:   1    -0.127990512194E+03    0.51111E-02   -0.72005E+00  4472   0.585E+00    0.167E-01
DAV:   2    -0.127992921692E+03   -0.24095E-02   -0.30221E-02  4536   0.833E-01    0.142E-01
DAV:   3    -0.127992885748E+03    0.35944E-04   -0.36907E-03  4952   0.746E-01    0.107E-01
DAV:   4    -0.127992646977E+03    0.23877E-03   -0.59835E-04  5448   0.512E-01    0.539E-02
DAV:   5    -0.127992681405E+03   -0.34428E-04   -0.58006E-04  5200   0.667E-01    0.365E-02
DAV:   6    -0.127992567563E+03    0.11384E-03   -0.21044E-04  4696   0.377E-01    0.128E-02
DAV:   7    -0.127992571771E+03   -0.42080E-05   -0.12882E-04  5496   0.906E-02    0.806E-03
DAV:   8    -0.127992574382E+03   -0.26107E-05   -0.35205E-05  3616   0.285E-02
  64 F= -.12799257E+03 E0= -.12795327E+03  d E =0.304753E-02
quench:  g(F)=  0.000E+00 g(S)=  0.000E+00 dE (1.order)= 0.000E+00
 bond charge predicted
       N       E                     dE             d eps       ncg     rms          rms(c)
DAV:   1    -0.128005930905E+03   -0.13359E-01   -0.17916E+01  4464   0.926E+00    0.258E-01
DAV:   2    -0.128007591610E+03   -0.16607E-02   -0.37001E-02  4552   0.928E-01    0.203E-01
DAV:   3    -0.128007592090E+03   -0.48002E-06   -0.66167E-03  4832   0.156E+00    0.189E-01
DAV:   4    -0.128007076339E+03    0.51575E-03   -0.39709E-03  7704   0.173E+00    0.913E-02
DAV:   5    -0.128006240512E+03    0.83583E-03   -0.23233E-03  8352   0.942E-01    0.481E-02
DAV:   6    -0.128006217272E+03    0.23240E-04   -0.56993E-04  5136   0.212E-01    0.226E-02
DAV:   7    -0.128006218391E+03   -0.11188E-05   -0.15659E-04  4616   0.717E-02    0.146E-02
DAV:   8    -0.128006214726E+03    0.36646E-05   -0.22492E-05  2720   0.364E-02
  65 F= -.12800621E+03 E0= -.12796709E+03  d E =-.136403E-01
quench:  g(F)=  0.000E+00 g(S)=  0.000E+00 dE (1.order)= 0.000E+00
 bond charge predicted
       N       E                     dE             d eps       ncg     rms          rms(c)
DAV:   1    -0.128004966580E+03    0.12518E-02   -0.13646E+00  4552   0.254E+00    0.734E-02
DAV:   2    -0.128005370810E+03   -0.40423E-03   -0.52520E-03  4536   0.352E-01    0.597E-02
DAV:   3    -0.128005367053E+03    0.37571E-05   -0.73075E-04  4656   0.334E-01    0.481E-02
DAV:   4    -0.128005321693E+03    0.45360E-04   -0.13189E-04  5168   0.240E-01    0.219E-02
DAV:   5    -0.128005329680E+03   -0.79868E-05   -0.12400E-04  4576   0.298E-01    0.180E-02
DAV:   6    -0.128005306034E+03    0.23646E-04   -0.40896E-05  2896   0.168E-01    0.444E-03
DAV:   7    -0.128005308687E+03   -0.26536E-05   -0.34748E-05  3552   0.331E-02
  66 F= -.12800531E+03 E0= -.12796629E+03  d E =0.906039E-03
quench:  g(F)=  0.000E+00 g(S)=  0.000E+00 dE (1.order)= 0.000E+00
 bond charge predicted
       N       E                     dE             d eps       ncg     rms          rms(c)
DAV:   1    -0.128006234421E+03   -0.92839E-03   -0.35609E-01  4480   0.130E+00    0.393E-02
DAV:   2    -0.128006330071E+03   -0.95650E-04   -0.13463E-03  4600   0.189E-01    0.327E-02
DAV:   3    -0.128006328606E+03    0.14647E-05   -0.23070E-04  4824   0.181E-01    0.251E-02
DAV:   4    -0.128006310704E+03    0.17902E-04   -0.33396E-05  3880   0.841E-02    0.601E-03
DAV:   5    -0.128006315024E+03   -0.43197E-05   -0.16361E-05  2672   0.988E-02
  67 F= -.12800632E+03 E0= -.12796729E+03  d E =-.100634E-02
quench:  g(F)=  0.000E+00 g(S)=  0.000E+00 dE (1.order)= 0.000E+00
 reached required accuracy - stopping structural energy minimisation
