 running on   18 total cores
 distrk:  each k-point on   18 cores,    1 groups
 distr:  one band on    1 cores,   18 groups
 using from now: INCAR     
 vasp.5.4.1 24Jun15 (build Oct 26 2018 17:15:27) complex                        
  
 POSCAR found type information on POSCAR  C  N  H 
 POSCAR found :  3 types and       3 ions
 scaLAPACK will be used

 ----------------------------------------------------------------------------- 
|                                                                             |
|           W    W    AA    RRRRR   N    N  II  N    N   GGGG   !!!           |
|           W    W   A  A   R    R  NN   N  II  NN   N  G    G  !!!           |
|           W    W  A    A  R    R  N N  N  II  N N  N  G       !!!           |
|           W WW W  AAAAAA  RRRRR   N  N N  II  N  N N  G  GGG   !            |
|           WW  WW  A    A  R   R   N   NN  II  N   NN  G    G                |
|           W    W  A    A  R    R  N    N  II  N    N   GGGG   !!!           |
|                                                                             |
|      For optimal performance we recommend to set                            |
|        NCORE= 4 - approx SQRT( number of cores)                             |
|      NCORE specifies how many cores store one orbital (NPAR=cpu/NCORE).     |
|      This setting can  greatly improve the performance of VASP for DFT.     |
|      The default, NPAR=number of cores might be grossly inefficient         |
|      on modern multi-core architectures or massively parallel machines.     |
|      Do your own testing !!!!                                               |
|      Unfortunately you need to use the default for GW and RPA calculations. |
|      (for HF NCORE is supported but not extensively tested yet)             |
|                                                                             |
 ----------------------------------------------------------------------------- 

 LDA part: xc-table for Ceperly-Alder, standard interpolation
 POSCAR, INCAR and KPOINTS ok, starting setup
 WARNING: small aliasing (wrap around) errors must be expected
 FFT: planning ...
 WAVECAR not read
 entering main loop
       N       E                     dE             d eps       ncg     rms          rms(c)
DAV:   1     0.389243048454E+02    0.38924E+02   -0.20845E+03    72   0.219E+02
DAV:   2    -0.173095208314E+02   -0.56234E+02   -0.56234E+02    54   0.673E+01
DAV:   3    -0.220533729177E+02   -0.47439E+01   -0.47439E+01    72   0.224E+01
DAV:   4    -0.220620999150E+02   -0.87270E-02   -0.87270E-02    36   0.103E+00
DAV:   5    -0.220622095617E+02   -0.10965E-03   -0.10965E-03    36   0.123E-01    0.780E+00
DAV:   6    -0.202393475590E+02    0.18229E+01   -0.63474E+00    54   0.753E+00    0.405E+00
DAV:   7    -0.198800789199E+02    0.35927E+00   -0.15665E+00    54   0.389E+00    0.189E+00
DAV:   8    -0.197646555586E+02    0.11542E+00   -0.43147E-01    54   0.203E+00    0.751E-01
DAV:   9    -0.197388993997E+02    0.25756E-01   -0.18323E-02    36   0.625E-01    0.163E-01
DAV:  10    -0.197339316713E+02    0.49677E-02   -0.28377E-03    36   0.231E-01    0.968E-02
DAV:  11    -0.197344429389E+02   -0.51127E-03   -0.94973E-03    36   0.409E-01    0.527E-02
DAV:  12    -0.197392287680E+02   -0.47858E-02   -0.26192E-03    36   0.249E-01    0.394E-02
DAV:  13    -0.197437166850E+02   -0.44879E-02   -0.22138E-03    36   0.187E-01    0.207E-02
DAV:  14    -0.197459992199E+02   -0.22825E-02   -0.64242E-04    54   0.889E-02    0.190E-02
DAV:  15    -0.197469529825E+02   -0.95376E-03   -0.24365E-04    36   0.523E-02    0.815E-03
DAV:  16    -0.197473834473E+02   -0.43046E-03   -0.63995E-05    36   0.239E-02    0.720E-03
DAV:  17    -0.197476624026E+02   -0.27896E-03   -0.33235E-05    72   0.176E-02    0.494E-03
DAV:  18    -0.197477402006E+02   -0.77798E-04   -0.49355E-06    72   0.691E-03    0.130E-03
DAV:  19    -0.197478565768E+02   -0.11638E-03   -0.12082E-05    72   0.101E-02    0.194E-03
DAV:  20    -0.197478689325E+02   -0.12356E-04   -0.49013E-07    36   0.234E-03    0.484E-04
DAV:  21    -0.197478827356E+02   -0.13803E-04   -0.56694E-07    36   0.298E-03    0.638E-04
DAV:  22    -0.197478838536E+02   -0.11180E-05   -0.47703E-08    36   0.106E-03
   1 F= -.19747884E+02 E0= -.19747884E+02  d E =-.197479E+02
 curvature:   0.00 expect dE= 0.000E+00 dE for cont linesearch  0.000E+00
 trial: gam= 0.00000 g(F)=  0.820E-03 g(S)=  0.000E+00 ort = 0.000E+00 (trialstep = 0.100E+01)
 search vector abs. value=  0.820E-03
 bond charge predicted
       N       E                     dE             d eps       ncg     rms          rms(c)
DAV:   1    -0.197485118396E+02   -0.62910E-03   -0.10650E-02    36   0.486E-01    0.426E-02
DAV:   2    -0.197484884683E+02    0.23371E-04   -0.30547E-04    72   0.584E-02    0.212E-02
DAV:   3    -0.197484846084E+02    0.38599E-05   -0.14260E-05    36   0.132E-02
   2 F= -.19748485E+02 E0= -.19748485E+02  d E =-.600755E-03
 trial-energy change:   -0.000601  1 .order   -0.000605   -0.000820   -0.000389
 step:   1.9018(harm=  1.9018)  dis= 0.00437  next Energy=   -19.748664 (dE=-0.780E-03)
 bond charge predicted
       N       E                     dE             d eps       ncg     rms          rms(c)
DAV:   1    -0.197486652902E+02   -0.17682E-03   -0.84849E-03    36   0.437E-01    0.389E-02
DAV:   2    -0.197486447723E+02    0.20518E-04   -0.27124E-04    54   0.535E-02    0.195E-02
DAV:   3    -0.197486460195E+02   -0.12473E-05   -0.17948E-05    36   0.142E-02
   3 F= -.19748646E+02 E0= -.19748646E+02  d E =-.762166E-03
 curvature:  -0.95 expect dE=-0.426E-03 dE for cont linesearch -0.285E-06
 trial: gam= 0.56481 g(F)=  0.448E-03 g(S)=  0.000E+00 ort =-0.157E-04 (trialstep = 0.118E+01)
 search vector abs. value=  0.692E-03
 bond charge predicted
       N       E                     dE             d eps       ncg     rms          rms(c)
DAV:   1    -0.197485914753E+02    0.53297E-04   -0.33963E-02    36   0.885E-01    0.687E-02
DAV:   2    -0.197485109236E+02    0.80552E-04   -0.74265E-04    54   0.106E-01    0.348E-02
DAV:   3    -0.197484875467E+02    0.23377E-04   -0.14857E-04    72   0.392E-02    0.148E-02
DAV:   4    -0.197484846511E+02    0.28957E-05   -0.25808E-05    36   0.194E-02
   4 F= -.19748485E+02 E0= -.19748485E+02  d E =0.161368E-03
 trial-energy change:    0.000161  1 .order    0.000169   -0.000518    0.000855
 step:   0.4452(harm=  0.4452)  dis= 0.00058  next Energy=   -19.748744 (dE=-0.977E-04)
 bond charge predicted
       N       E                     dE             d eps       ncg     rms          rms(c)
DAV:   1    -0.197487878073E+02   -0.30026E-03   -0.13028E-02    36   0.550E-01    0.413E-02
DAV:   2    -0.197487609495E+02    0.26858E-04   -0.28628E-04    54   0.675E-02    0.212E-02
DAV:   3    -0.197487484033E+02    0.12546E-04   -0.57109E-05    36   0.248E-02    0.852E-03
DAV:   4    -0.197487470997E+02    0.13037E-05   -0.11631E-05    72   0.137E-02
   5 F= -.19748747E+02 E0= -.19748747E+02  d E =-.101080E-03
 curvature:  -0.35 expect dE=-0.120E-05 dE for cont linesearch -0.624E-07
 trial: gam=-0.06044 g(F)=  0.343E-05 g(S)=  0.000E+00 ort = 0.111E-04 (trialstep = 0.103E+01)
 search vector abs. value=  0.461E-05
 reached required accuracy - stopping structural energy minimisation
 writing wavefunctions
