 running on   20 total cores
 distrk:  each k-point on   20 cores,    1 groups
 distr:  one band on    1 cores,   20 groups
 using from now: INCAR     
 vasp.5.4.1 24Jun15 (build Oct 26 2018 17:15:27) complex                        
  
 POSCAR found type information on POSCAR  Pt O 
 POSCAR found :  2 types and      13 ions
 scaLAPACK will be used

 ----------------------------------------------------------------------------- 
|                                                                             |
|           W    W    AA    RRRRR   N    N  II  N    N   GGGG   !!!           |
|           W    W   A  A   R    R  NN   N  II  NN   N  G    G  !!!           |
|           W    W  A    A  R    R  N N  N  II  N N  N  G       !!!           |
|           W WW W  AAAAAA  RRRRR   N  N N  II  N  N N  G  GGG   !            |
|           WW  WW  A    A  R   R   N   NN  II  N   NN  G    G                |
|           W    W  A    A  R    R  N    N  II  N    N   GGGG   !!!           |
|                                                                             |
|      For optimal performance we recommend to set                            |
|        NCORE= 4 - approx SQRT( number of cores)                             |
|      NCORE specifies how many cores store one orbital (NPAR=cpu/NCORE).     |
|      This setting can  greatly improve the performance of VASP for DFT.     |
|      The default, NPAR=number of cores might be grossly inefficient         |
|      on modern multi-core architectures or massively parallel machines.     |
|      Do your own testing !!!!                                               |
|      Unfortunately you need to use the default for GW and RPA calculations. |
|      (for HF NCORE is supported but not extensively tested yet)             |
|                                                                             |
 ----------------------------------------------------------------------------- 

 LDA part: xc-table for Ceperly-Alder, standard interpolation
 POSCAR, INCAR and KPOINTS ok, starting setup
 WARNING: small aliasing (wrap around) errors must be expected
 FFT: planning ...
 WAVECAR not read
 WARNING: random wavefunctions but no delay for mixing, default for NELMDL
 entering main loop
       N       E                     dE             d eps       ncg     rms          rms(c)
DAV:   1     0.127682902966E+04    0.12768E+04   -0.51428E+04  6560   0.133E+03
DAV:   2     0.631555875830E+02   -0.12137E+04   -0.11104E+04  6560   0.446E+02
DAV:   3    -0.760608635148E+02   -0.13922E+03   -0.12971E+03  9480   0.122E+02
DAV:   4    -0.816742626012E+02   -0.56134E+01   -0.55143E+01  7460   0.349E+01
DAV:   5    -0.818366257689E+02   -0.16236E+00   -0.16217E+00  8900   0.425E+00    0.184E+01
RMM:   6    -0.122152470020E+03   -0.40316E+02   -0.24254E+01  6607   0.232E+01    0.379E+01
RMM:   7    -0.111221657581E+03    0.10931E+02   -0.32393E+01  7027   0.170E+01    0.320E+01
RMM:   8    -0.778936681853E+02    0.33328E+02   -0.97214E+00  6737   0.114E+01    0.157E+01
RMM:   9    -0.730006075856E+02    0.48931E+01   -0.31140E+00  6733   0.654E+00    0.946E+00
RMM:  10    -0.725998480747E+02    0.40076E+00   -0.13571E+00  6647   0.482E+00    0.677E+00
RMM:  11    -0.731668096679E+02   -0.56696E+00   -0.30161E-01  6594   0.235E+00    0.178E+01
RMM:  12    -0.720730221975E+02    0.10938E+01   -0.90878E-02  6671   0.112E+00    0.271E+00
RMM:  13    -0.720665505409E+02    0.64717E-02   -0.14139E-01  6614   0.156E+00    0.323E+00
RMM:  14    -0.720218879716E+02    0.44663E-01   -0.86240E-02  6632   0.127E+00    0.202E+00
RMM:  15    -0.719971286655E+02    0.24759E-01   -0.23691E-02  6603   0.673E-01    0.806E-01
RMM:  16    -0.719931107520E+02    0.40179E-02   -0.41552E-03  6696   0.267E-01    0.767E-01
RMM:  17    -0.720248528024E+02   -0.31742E-01   -0.45053E-03  6680   0.245E-01    0.358E+00
RMM:  18    -0.720003806253E+02    0.24472E-01   -0.36657E-03  6589   0.261E-01    0.193E+00
RMM:  19    -0.719903924649E+02    0.99882E-02   -0.23089E-03  6613   0.177E-01    0.382E-01
RMM:  20    -0.719899359191E+02    0.45655E-03   -0.28030E-03  6556   0.200E-01    0.779E-02
RMM:  21    -0.719906583502E+02   -0.72243E-03   -0.30188E-04  6199   0.665E-02    0.319E-01
RMM:  22    -0.719905126772E+02    0.14567E-03   -0.15289E-04  5587   0.509E-02    0.165E-01
RMM:  23    -0.719906853212E+02   -0.17264E-03   -0.20663E-04  5720   0.455E-02    0.863E-02
RMM:  24    -0.719911597542E+02   -0.47443E-03   -0.11912E-04  5282   0.437E-02    0.206E-01
RMM:  25    -0.719911756071E+02   -0.15853E-04   -0.12270E-04  5177   0.386E-02    0.340E-02
RMM:  26    -0.719913276192E+02   -0.15201E-03   -0.54008E-05  4771   0.260E-02    0.120E-01
RMM:  27    -0.719913838631E+02   -0.56244E-04   -0.32482E-05  4428   0.242E-02    0.161E-02
RMM:  28    -0.719914560489E+02   -0.72186E-04   -0.14860E-05  4008   0.145E-02    0.246E-02
RMM:  29    -0.719914823764E+02   -0.26327E-04   -0.54601E-06  3719   0.110E-02    0.296E-02
RMM:  30    -0.719914867269E+02   -0.43505E-05   -0.18868E-06  3517   0.708E-03
   1 F= -.71991487E+02 E0= -.71900380E+02  d E =-.719915E+02
 curvature:   0.00 expect dE= 0.000E+00 dE for cont linesearch  0.000E+00
 trial: gam= 0.00000 g(F)=  0.237E+00 g(S)=  0.000E+00 ort = 0.000E+00 (trialstep = 0.100E+01)
 search vector abs. value=  0.237E+00
 bond charge predicted
       N       E                     dE             d eps       ncg     rms          rms(c)
DAV:   1    -0.722154549666E+02   -0.22397E+00   -0.12635E+01  7240   0.115E+01    0.599E-01
RMM:   2    -0.723000123150E+02   -0.84557E-01   -0.20405E-01  6654   0.177E+00    0.522E+00
RMM:   3    -0.723147550378E+02   -0.14743E-01   -0.31151E-02  6879   0.637E-01    0.369E+00
RMM:   4    -0.722443634259E+02    0.70392E-01   -0.11968E-02  6640   0.457E-01    0.122E+00
RMM:   5    -0.722386340598E+02    0.57294E-02   -0.56674E-03  6607   0.314E-01    0.135E+00
RMM:   6    -0.722387751889E+02   -0.14113E-03   -0.15772E-03  6606   0.153E-01    0.136E+00
RMM:   7    -0.722358712138E+02    0.29040E-02   -0.14022E-03  6582   0.142E-01    0.105E+00
RMM:   8    -0.722324186544E+02    0.34526E-02   -0.18534E-03  6663   0.143E-01    0.216E-01
RMM:   9    -0.722317462918E+02    0.67236E-03   -0.12242E-03  6598   0.149E-01    0.202E-01
RMM:  10    -0.722316411684E+02    0.10512E-03   -0.90764E-05  5581   0.500E-02    0.112E-01
RMM:  11    -0.722316280776E+02    0.13091E-04   -0.27499E-05  4167   0.213E-02    0.140E-02
RMM:  12    -0.722316476567E+02   -0.19579E-04   -0.10769E-05  3698   0.216E-02    0.865E-03
RMM:  13    -0.722316579463E+02   -0.10290E-04   -0.37170E-06  3537   0.124E-02    0.711E-03
RMM:  14    -0.722316683063E+02   -0.10360E-04   -0.24127E-06  3232   0.676E-03    0.778E-03
RMM:  15    -0.722316742194E+02   -0.59131E-05   -0.12625E-06  2831   0.478E-03
   2 F= -.72231674E+02 E0= -.72141523E+02  d E =-.240187E+00
 ZBRENT: can't locate minimum, use default step
 trial-energy change:   -0.240187  1 .order   -0.239295   -0.236723   -0.241866
 step:   4.0000(harm=  4.0000)  dis= 0.12637  next Energy=   -73.310321 (dE=-0.132E+01)
 bond charge predicted
       N       E                     dE             d eps       ncg     rms          rms(c)
DAV:   1    -0.727399125019E+02   -0.50824E+00   -0.11465E+02  6560   0.353E+01    0.216E+00
RMM:   2    -0.776394319864E+02   -0.48995E+01   -0.41097E+00  6677   0.899E+00    0.149E+01
RMM:   3    -0.733774452808E+02    0.42620E+01   -0.64819E-01  6890   0.259E+00    0.621E+00
RMM:   4    -0.729924776134E+02    0.38497E+00   -0.15876E-01  6784   0.157E+00    0.242E+00
RMM:   5    -0.730117591884E+02   -0.19282E-01   -0.84022E-02  6663   0.114E+00    0.371E+00
RMM:   6    -0.729815071527E+02    0.30252E-01   -0.12028E-02  6681   0.449E-01    0.303E+00
RMM:   7    -0.729539481647E+02    0.27559E-01   -0.10189E-02  6720   0.372E-01    0.193E+00
RMM:   8    -0.729421145593E+02    0.11834E-01   -0.31405E-02  6653   0.583E-01    0.620E-01
RMM:   9    -0.729395037267E+02    0.26108E-02   -0.71448E-03  6597   0.373E-01    0.577E-01
RMM:  10    -0.729382890974E+02    0.12146E-02   -0.99687E-04  6635   0.153E-01    0.410E-01
RMM:  11    -0.729376011013E+02    0.68800E-03   -0.40034E-04  6568   0.808E-02    0.743E-02
RMM:  12    -0.729376900384E+02   -0.88937E-04   -0.30402E-04  6559   0.814E-02    0.130E-01
RMM:  13    -0.729377479647E+02   -0.57926E-04   -0.61835E-05  5147   0.328E-02    0.173E-01
RMM:  14    -0.729376915212E+02    0.56444E-04   -0.43857E-05  4928   0.366E-02    0.362E-02
RMM:  15    -0.729377824295E+02   -0.90908E-04   -0.18892E-05  4033   0.234E-02    0.883E-03
RMM:  16    -0.729378675361E+02   -0.85107E-04   -0.88372E-06  3786   0.111E-02    0.167E-02
RMM:  17    -0.729379448092E+02   -0.77273E-04   -0.94176E-06  3866   0.959E-03    0.183E-02
RMM:  18    -0.729380197430E+02   -0.74934E-04   -0.18106E-05  3956   0.101E-02    0.886E-03
RMM:  19    -0.729380401960E+02   -0.20453E-04   -0.60733E-06  3369   0.854E-03    0.628E-03
RMM:  20    -0.729380476752E+02   -0.74792E-05   -0.41260E-06  3058   0.656E-03
   3 F= -.72938048E+02 E0= -.72849953E+02  d E =-.946561E+00
 curvature:  -3.03 expect dE=-0.610E+00 dE for cont linesearch -0.605E+00
 ZBRENT: increasing intervall
 opt :  10.0000  next Energy=   -74.096614 (dE=-0.211E+01)
 bond charge predicted
       N       E                     dE             d eps       ncg     rms          rms(c)
DAV:   1    -0.726030204554E+02    0.33502E+00   -0.47909E+02  6560   0.751E+01    0.949E+00
RMM:   2    -0.136279026084E+03   -0.63676E+02   -0.72376E+01  7470   0.266E+01    0.350E+01
RMM:   3    -0.848235649304E+02    0.51455E+02   -0.12698E+01  6824   0.122E+01    0.218E+01
RMM:   4    -0.746849182731E+02    0.10139E+02   -0.43881E+00  6720   0.755E+00    0.110E+01
RMM:   5    -0.739362922504E+02    0.74863E+00   -0.10163E+00  7019   0.376E+00    0.927E+00
RMM:   6    -0.728971511391E+02    0.10391E+01   -0.44738E-01  7495   0.216E+00    0.325E+00
RMM:   7    -0.728823745423E+02    0.14777E-01   -0.18765E-01  6604   0.189E+00    0.337E+00
RMM:   8    -0.727720152925E+02    0.11036E+00   -0.89100E-02  6592   0.119E+00    0.103E+00
RMM:   9    -0.728137144593E+02   -0.41699E-01   -0.80364E-02  6712   0.854E-01    0.311E+00
RMM:  10    -0.727688773976E+02    0.44837E-01   -0.13163E-02  6612   0.506E-01    0.910E-01
RMM:  11    -0.727676975798E+02    0.11798E-02   -0.50678E-03  6615   0.320E-01    0.119E+00
RMM:  12    -0.727611457998E+02    0.65518E-02   -0.33098E-03  6583   0.262E-01    0.739E-01
RMM:  13    -0.727614693795E+02   -0.32358E-03   -0.11867E-03  6658   0.186E-01    0.808E-01
RMM:  14    -0.727575716594E+02    0.38977E-02   -0.31448E-04  6764   0.680E-02    0.385E-01
RMM:  15    -0.727562268131E+02    0.13448E-02   -0.43396E-04  6551   0.645E-02    0.647E-02
RMM:  16    -0.727561065785E+02    0.12023E-03   -0.13385E-04  5746   0.639E-02    0.408E-02
RMM:  17    -0.727560633804E+02    0.43198E-04   -0.30415E-05  4366   0.212E-02    0.540E-02
RMM:  18    -0.727561190922E+02   -0.55712E-04   -0.57305E-05  4927   0.258E-02    0.442E-02
RMM:  19    -0.727563272183E+02   -0.20813E-03   -0.39905E-05  4508   0.206E-02    0.846E-02
RMM:  20    -0.727566062318E+02   -0.27901E-03   -0.34655E-05  4537   0.171E-02    0.135E-01
RMM:  21    -0.727565976821E+02    0.85497E-05   -0.72536E-06  3840   0.131E-02
   4 F= -.72756598E+02 E0= -.72675164E+02  d E =-.765111E+00
 curvature:  -5.80 expect dE=-0.804E+01 dE for cont linesearch -0.791E+01
 ZBRENT: bracketing found
 ZBRENT: interpolating
 opt :   5.6609  next Energy=   -73.118653 (dE=-0.113E+01)
 bond charge predicted
       N       E                     dE             d eps       ncg     rms          rms(c)
DAV:   1    -0.731526847750E+02   -0.39608E+00   -0.24861E+02  6560   0.487E+01    0.496E+00
RMM:   2    -0.104833773897E+03   -0.31681E+02   -0.96803E+00  6634   0.918E+00    0.314E+01
RMM:   3    -0.748308054739E+02    0.30003E+02   -0.42407E+00  6677   0.708E+00    0.147E+01
RMM:   4    -0.738460364007E+02    0.98477E+00   -0.87587E-01  7084   0.312E+00    0.811E+00
RMM:   5    -0.734515035782E+02    0.39453E+00   -0.47221E-01  6647   0.309E+00    0.369E+00
RMM:   6    -0.733100741533E+02    0.14143E+00   -0.15309E-01  6690   0.160E+00    0.186E+00
RMM:   7    -0.732853059753E+02    0.24768E-01   -0.42555E-02  6811   0.778E-01    0.204E+00
RMM:   8    -0.732658291744E+02    0.19477E-01   -0.28533E-02  6592   0.718E-01    0.101E+00
RMM:   9    -0.732606753577E+02    0.51538E-02   -0.21656E-02  6593   0.654E-01    0.130E+00
RMM:  10    -0.732509156163E+02    0.97597E-02   -0.55734E-03  6623   0.283E-01    0.314E-01
RMM:  11    -0.732507786252E+02    0.13699E-03   -0.12351E-03  6595   0.178E-01    0.777E-02
RMM:  12    -0.732512585388E+02   -0.47991E-03   -0.44387E-04  6566   0.891E-02    0.792E-02
RMM:  13    -0.732514196025E+02   -0.16106E-03   -0.12355E-04  6216   0.469E-02    0.464E-02
RMM:  14    -0.732517778876E+02   -0.35829E-03   -0.11770E-04  5719   0.411E-02    0.370E-02
RMM:  15    -0.732520555568E+02   -0.27767E-03   -0.97508E-05  5389   0.325E-02    0.115E-02
RMM:  16    -0.732526115645E+02   -0.55601E-03   -0.76394E-05  5619   0.236E-02    0.244E-01
RMM:  17    -0.732525183046E+02    0.93260E-04   -0.31536E-05  4542   0.335E-02    0.190E-01
RMM:  18    -0.732522531802E+02    0.26512E-03   -0.15622E-05  3940   0.134E-02    0.219E-02
RMM:  19    -0.732526651992E+02   -0.41202E-03   -0.11978E-04  6007   0.343E-02    0.222E-01
RMM:  20    -0.732525001227E+02    0.16508E-03   -0.39756E-05  4759   0.352E-02    0.143E-01
RMM:  21    -0.732525098895E+02   -0.97667E-05   -0.60897E-06  3726   0.103E-02
   5 F= -.73252510E+02 E0= -.73165784E+02  d E =-.126102E+01
 curvature:  -0.13 expect dE=-0.137E-01 dE for cont linesearch -0.133E-01
 ZBRENT: bisectioning
 opt :   7.8304  next Energy=   -73.496729 (dE=-0.151E+01)
 bond charge predicted
       N       E                     dE             d eps       ncg     rms          rms(c)
DAV:   1    -0.733942715270E+02   -0.14177E+00   -0.61315E+01  6560   0.265E+01    0.436E+00
RMM:   2    -0.933693652643E+02   -0.19975E+02   -0.95870E+00  7163   0.103E+01    0.237E+01
RMM:   3    -0.765180736689E+02    0.16851E+02   -0.25740E+00  6698   0.501E+00    0.130E+01
RMM:   4    -0.738047554431E+02    0.27133E+01   -0.98864E-01  6783   0.341E+00    0.648E+00
RMM:   5    -0.735109056836E+02    0.29385E+00   -0.21008E-01  7110   0.169E+00    0.412E+00
RMM:   6    -0.733990784644E+02    0.11183E+00   -0.72122E-02  7264   0.963E-01    0.137E+00
RMM:   7    -0.733990913202E+02   -0.12856E-04   -0.29190E-02  6609   0.733E-01    0.164E+00
RMM:   8    -0.733812729582E+02    0.17818E-01   -0.10257E-02  6637   0.423E-01    0.502E-01
RMM:   9    -0.733801847191E+02    0.10882E-02   -0.62245E-03  6772   0.262E-01    0.546E-01
RMM:  10    -0.733785848014E+02    0.15999E-02   -0.10766E-03  6659   0.171E-01    0.236E-01
RMM:  11    -0.733785273878E+02    0.57414E-04   -0.26269E-04  6672   0.734E-02    0.302E-01
RMM:  12    -0.733781761101E+02    0.35128E-03   -0.16754E-04  6469   0.419E-02    0.197E-01
RMM:  13    -0.733781029345E+02    0.73176E-04   -0.87905E-05  5720   0.632E-02    0.115E-01
RMM:  14    -0.733780766825E+02    0.26252E-04   -0.12311E-05  3856   0.161E-02    0.494E-02
RMM:  15    -0.733781685578E+02   -0.91875E-04   -0.23555E-05  4285   0.213E-02    0.286E-02
RMM:  16    -0.733782132799E+02   -0.44722E-04   -0.64365E-06  3710   0.164E-02    0.159E-02
RMM:  17    -0.733782949097E+02   -0.81630E-04   -0.66318E-06  3794   0.875E-03    0.653E-03
RMM:  18    -0.733784314623E+02   -0.13655E-03   -0.28062E-05  4343   0.117E-02    0.127E-02
RMM:  19    -0.733784672908E+02   -0.35828E-04   -0.11289E-05  3855   0.926E-03    0.299E-03
RMM:  20    -0.733784776878E+02   -0.10397E-04   -0.49824E-06  3471   0.754E-03    0.660E-03
RMM:  21    -0.733784812597E+02   -0.35719E-05   -0.27327E-06  3168   0.588E-03
   6 F= -.73378481E+02 E0= -.73294196E+02  d E =-.138699E+01
 curvature:  -2.44 expect dE=-0.635E-01 dE for cont linesearch -0.443E-01
 ZBRENT: interpolating
 opt :   7.1823  next Energy=   -73.399748 (dE=-0.141E+01)
 bond charge predicted
       N       E                     dE             d eps       ncg     rms          rms(c)
DAV:   1    -0.733959716628E+02   -0.17494E-01   -0.55052E+00  6560   0.780E+00    0.121E+00
RMM:   2    -0.767686650217E+02   -0.33727E+01   -0.45401E-01  6737   0.204E+00    0.152E+01
RMM:   3    -0.734616308646E+02    0.33070E+01   -0.26639E-01  6658   0.157E+00    0.270E+00
RMM:   4    -0.734228064634E+02    0.38824E-01   -0.40540E-02  6662   0.818E-01    0.195E+00
RMM:   5    -0.733976740977E+02    0.25132E-01   -0.17985E-02  6714   0.570E-01    0.673E-01
RMM:   6    -0.733939390845E+02    0.37350E-02   -0.56457E-03  6671   0.300E-01    0.348E-01
RMM:   7    -0.733929523739E+02    0.98671E-03   -0.14091E-03  7100   0.127E-01    0.146E-01
RMM:   8    -0.733929822177E+02   -0.29844E-04   -0.63904E-04  6638   0.111E-01    0.141E-01
RMM:   9    -0.733927645503E+02    0.21767E-03   -0.28767E-04  6608   0.734E-02    0.939E-02
RMM:  10    -0.733927560351E+02    0.85152E-05   -0.75876E-05  5963   0.368E-02
   7 F= -.73392756E+02 E0= -.73307727E+02  d E =-.140127E+01
 curvature:  -1.17 expect dE=-0.851E-02 dE for cont linesearch -0.186E-02
 ZBRENT: interpolating
 opt :   7.3301  next Energy=   -73.394190 (dE=-0.140E+01)
 bond charge predicted
       N       E                     dE             d eps       ncg     rms          rms(c)
DAV:   1    -0.733943725664E+02   -0.16080E-02   -0.28533E-01  6580   0.179E+00    0.313E-01
RMM:   2    -0.736853803278E+02   -0.29101E+00   -0.38849E-02  6951   0.608E-01    0.532E+00
RMM:   3    -0.734032047415E+02    0.28218E+00   -0.23609E-02  6662   0.493E-01    0.825E-01
RMM:   4    -0.733942268865E+02    0.89779E-02   -0.50220E-03  6621   0.279E-01    0.281E-01
RMM:   5    -0.733945097616E+02   -0.28288E-03   -0.11843E-03  6791   0.145E-01    0.170E-01
RMM:   6    -0.733942249115E+02    0.28485E-03   -0.28584E-04  6757   0.757E-02    0.607E-02
RMM:   7    -0.733942055668E+02    0.19345E-04   -0.62683E-05  5350   0.321E-02    0.281E-02
RMM:   8    -0.733942378373E+02   -0.32271E-04   -0.30277E-05  4252   0.277E-02    0.578E-02
RMM:   9    -0.733942107581E+02    0.27079E-04   -0.14761E-05  3736   0.242E-02    0.184E-02
RMM:  10    -0.733942345876E+02   -0.23829E-04   -0.10544E-05  3721   0.127E-02    0.584E-02
RMM:  11    -0.733942152680E+02    0.19320E-04   -0.42068E-06  3655   0.148E-02    0.173E-02
RMM:  12    -0.733942135658E+02    0.17022E-05   -0.10693E-06  3403   0.564E-03
   8 F= -.73394214E+02 E0= -.73309327E+02  d E =-.140273E+01
 curvature:  -0.90 expect dE=-0.559E-02 dE for cont linesearch -0.159E-05
 trial: gam= 0.02345 g(F)=  0.620E-02 g(S)=  0.000E+00 ort = 0.646E-03 (trialstep = 0.227E+01)
 search vector abs. value=  0.636E-02
 bond charge predicted
       N       E                     dE             d eps       ncg     rms          rms(c)
DAV:   1    -0.734044076320E+02   -0.10192E-01   -0.18958E+00  6560   0.418E+00    0.146E-01
RMM:   2    -0.734632437340E+02   -0.58836E-01   -0.30109E-02  6634   0.721E-01    0.247E+00
RMM:   3    -0.734077954316E+02    0.55448E-01   -0.58933E-03  6666   0.320E-01    0.297E-01
RMM:   4    -0.734073614759E+02    0.43396E-03   -0.17917E-03  6655   0.196E-01    0.227E-01
RMM:   5    -0.734069393053E+02    0.42217E-03   -0.24354E-04  6623   0.612E-02    0.107E-01
RMM:   6    -0.734068116969E+02    0.12761E-03   -0.10269E-04  6496   0.402E-02    0.792E-02
RMM:   7    -0.734067239540E+02    0.87743E-04   -0.50439E-04  6604   0.730E-02    0.363E-02
RMM:   8    -0.734067226316E+02    0.13224E-05   -0.77722E-05  6221   0.384E-02
   9 F= -.73406723E+02 E0= -.73322063E+02  d E =-.125091E-01
 ZBRENT: can't locate minimum, use default step
 trial-energy change:   -0.012509  1 .order   -0.012643   -0.014076   -0.011211
 step:   9.0641(harm= 11.1329)  dis= 0.02592  next Energy=   -73.428791 (dE=-0.346E-01)
 bond charge predicted
       N       E                     dE             d eps       ncg     rms          rms(c)
DAV:   1    -0.733978934842E+02    0.88305E-02   -0.17034E+01  6560   0.126E+01    0.487E-01
RMM:   2    -0.738335523550E+02   -0.43566E+00   -0.30806E-01  6611   0.268E+00    0.599E+00
RMM:   3    -0.734342898218E+02    0.39926E+00   -0.57792E-02  7066   0.841E-01    0.118E+00
RMM:   4    -0.734296557735E+02    0.46340E-02   -0.13239E-02  6659   0.544E-01    0.840E-01
RMM:   5    -0.734239541256E+02    0.57016E-02   -0.26500E-03  6614   0.215E-01    0.337E-01
RMM:   6    -0.734230265990E+02    0.92753E-03   -0.88127E-04  6617   0.112E-01    0.296E-01
RMM:   7    -0.734226342028E+02    0.39240E-03   -0.43656E-03  6604   0.221E-01    0.296E-01
RMM:   8    -0.734220947228E+02    0.53948E-03   -0.13186E-03  6616   0.172E-01    0.175E-01
RMM:   9    -0.734218687245E+02    0.22600E-03   -0.21862E-04  6773   0.597E-02    0.595E-02
RMM:  10    -0.734218376580E+02    0.31066E-04   -0.67408E-05  6276   0.361E-02    0.280E-02
RMM:  11    -0.734218225204E+02    0.15138E-04   -0.35840E-05  4412   0.260E-02    0.141E-02
RMM:  12    -0.734218200563E+02    0.24642E-05   -0.14028E-05  3542   0.190E-02
  10 F= -.73421820E+02 E0= -.73337768E+02  d E =-.276065E-01
 curvature:  -5.39 expect dE=-0.698E-02 dE for cont linesearch -0.215E-04
 trial: gam= 0.18176 g(F)=  0.130E-02 g(S)=  0.000E+00 ort =-0.159E-03 (trialstep = 0.363E+01)
 search vector abs. value=  0.145E-02
 bond charge predicted
       N       E                     dE             d eps       ncg     rms          rms(c)
DAV:   1    -0.734239114738E+02   -0.20890E-02   -0.10586E+00  6560   0.296E+00    0.507E-01
RMM:   2    -0.740421386323E+02   -0.61823E+00   -0.70054E-02  6797   0.822E-01    0.947E+00
RMM:   3    -0.734352155364E+02    0.60692E+00   -0.51726E-02  6661   0.769E-01    0.114E+00
RMM:   4    -0.734258121974E+02    0.94033E-02   -0.10647E-02  6604   0.459E-01    0.460E-01
RMM:   5    -0.734244201712E+02    0.13920E-02   -0.23866E-03  6666   0.210E-01    0.251E-01
RMM:   6    -0.734240400463E+02    0.38012E-03   -0.54097E-04  6783   0.982E-02    0.199E-01
RMM:   7    -0.734238571407E+02    0.18291E-03   -0.17286E-04  6541   0.461E-02    0.143E-01
RMM:   8    -0.734238434918E+02    0.13649E-04   -0.13330E-04  6813   0.419E-02    0.948E-02
RMM:   9    -0.734238118529E+02    0.31639E-04   -0.44080E-05  4985   0.385E-02    0.564E-02
RMM:  10    -0.734237925962E+02    0.19257E-04   -0.74163E-06  3582   0.168E-02    0.118E-02
RMM:  11    -0.734237946189E+02   -0.20227E-05   -0.35860E-06  3573   0.114E-02
  11 F= -.73423795E+02 E0= -.73339506E+02  d E =-.197456E-02
 trial-energy change:   -0.001975  1 .order   -0.002013   -0.004592    0.000566
 step:   3.2281(harm=  3.2281)  dis= 0.00180  next Energy=   -73.423864 (dE=-0.204E-02)
 bond charge predicted
       N       E                     dE             d eps       ncg     rms          rms(c)
DAV:   1    -0.734238289275E+02   -0.36331E-04   -0.12789E-02  7380   0.325E-01    0.621E-02
RMM:   2    -0.734345855944E+02   -0.10757E-01   -0.12777E-03  6915   0.110E-01    0.125E+00
RMM:   3    -0.734239389188E+02    0.10647E-01   -0.10987E-03  6613   0.145E-01    0.145E-01
RMM:   4    -0.734238104808E+02    0.12844E-03   -0.30568E-04  6453   0.943E-02    0.398E-02
RMM:   5    -0.734238377458E+02   -0.27265E-04   -0.37448E-05  4656   0.346E-02    0.350E-02
RMM:   6    -0.734238267321E+02    0.11014E-04   -0.98734E-06  3679   0.212E-02    0.171E-02
RMM:   7    -0.734238258432E+02    0.88890E-06   -0.34542E-06  3489   0.103E-02
  12 F= -.73423826E+02 E0= -.73339553E+02  d E =-.200579E-02
 curvature:  -1.84 expect dE=-0.140E-02 dE for cont linesearch -0.327E-08
 trial: gam= 0.57187 g(F)=  0.757E-03 g(S)=  0.000E+00 ort = 0.160E-05 (trialstep = 0.355E+01)
 search vector abs. value=  0.123E-02
 bond charge predicted
       N       E                     dE             d eps       ncg     rms          rms(c)
DAV:   1    -0.734254057141E+02   -0.15790E-02   -0.79559E-01  6560   0.295E+00    0.226E-01
RMM:   2    -0.734978066771E+02   -0.72401E-01   -0.18062E-02  6790   0.510E-01    0.371E+00
RMM:   3    -0.734350717361E+02    0.62735E-01   -0.11142E-02  6622   0.409E-01    0.733E-01
RMM:   4    -0.734268503428E+02    0.82214E-02   -0.48751E-03  6601   0.298E-01    0.160E-01
RMM:   5    -0.734266657264E+02    0.18462E-03   -0.35795E-04  6758   0.780E-02    0.112E-01
RMM:   6    -0.734265092672E+02    0.15646E-03   -0.97850E-05  6449   0.369E-02    0.563E-02
RMM:   7    -0.734264996104E+02    0.96568E-05   -0.13701E-04  6464   0.448E-02    0.775E-02
RMM:   8    -0.734264712335E+02    0.28377E-04   -0.36383E-05  4542   0.233E-02    0.504E-02
RMM:   9    -0.734264568551E+02    0.14378E-04   -0.10613E-05  3556   0.205E-02    0.207E-02
RMM:  10    -0.734264556851E+02    0.11700E-05   -0.36933E-06  3521   0.131E-02
  13 F= -.73426456E+02 E0= -.73342194E+02  d E =-.262984E-02
 ZBRENT: can't locate minimum, use default step
 trial-energy change:   -0.002630  1 .order   -0.002558   -0.002689   -0.002427
 step:  14.1845(harm= 36.3636)  dis= 0.00273  next Energy=   -73.437612 (dE=-0.138E-01)
 bond charge predicted
       N       E                     dE             d eps       ncg     rms          rms(c)
DAV:   1    -0.734227602900E+02    0.36966E-02   -0.71625E+00  6560   0.887E+00    0.661E-01
RMM:   2    -0.739932944128E+02   -0.57053E+00   -0.14400E-01  6742   0.147E+00    0.930E+00
RMM:   3    -0.734723292105E+02    0.52097E+00   -0.65234E-02  6663   0.939E-01    0.201E+00
RMM:   4    -0.734358107828E+02    0.36518E-01   -0.16143E-02  6621   0.534E-01    0.465E-01
RMM:   5    -0.734340026079E+02    0.18082E-02   -0.25285E-03  6680   0.205E-01    0.339E-01
RMM:   6    -0.734327376563E+02    0.12650E-02   -0.77298E-04  6603   0.111E-01    0.200E-01
RMM:   7    -0.734325965432E+02    0.14111E-03   -0.13613E-03  6599   0.134E-01    0.192E-01
RMM:   8    -0.734323962308E+02    0.20031E-03   -0.31825E-04  6602   0.652E-02    0.108E-01
RMM:   9    -0.734323309060E+02    0.65325E-04   -0.71202E-05  6146   0.367E-02    0.416E-02
RMM:  10    -0.734323081788E+02    0.22727E-04   -0.18167E-05  3799   0.247E-02    0.150E-02
RMM:  11    -0.734323114919E+02   -0.33130E-05   -0.12810E-05  3589   0.184E-02
  14 F= -.73432311E+02 E0= -.73348115E+02  d E =-.848565E-02
 curvature: -16.06 expect dE=-0.107E-01 dE for cont linesearch -0.333E-02
 ZBRENT: increasing intervall
 opt :  35.4613  next Energy=   -73.439270 (dE=-0.154E-01)
 bond charge predicted
       N       E                     dE             d eps       ncg     rms          rms(c)
DAV:   1    -0.733981741509E+02    0.34134E-01   -0.28666E+01  6560   0.178E+01    0.125E+00
RMM:   2    -0.749520299907E+02   -0.15539E+01   -0.53782E-01  6648   0.309E+00    0.125E+01
RMM:   3    -0.735910525275E+02    0.13610E+01   -0.20382E-01  6676   0.163E+00    0.352E+00
RMM:   4    -0.734531789298E+02    0.13787E+00   -0.46820E-02  6666   0.830E-01    0.818E-01
RMM:   5    -0.734462031310E+02    0.69758E-02   -0.94759E-03  6653   0.396E-01    0.632E-01
RMM:   6    -0.734416808749E+02    0.45223E-02   -0.27855E-03  6598   0.231E-01    0.377E-01
RMM:   7    -0.734406469889E+02    0.10339E-02   -0.56299E-03  6600   0.256E-01    0.274E-01
RMM:   8    -0.734403666516E+02    0.28034E-03   -0.11048E-03  6608   0.145E-01    0.125E-01
RMM:   9    -0.734402344671E+02    0.13218E-03   -0.25702E-04  6726   0.684E-02    0.698E-02
RMM:  10    -0.734401911766E+02    0.43291E-04   -0.59145E-05  5803   0.377E-02    0.328E-02
RMM:  11    -0.734401893609E+02    0.18157E-05   -0.73920E-05  5855   0.333E-02
  15 F= -.73440189E+02 E0= -.73356325E+02  d E =-.163635E-01
 curvature: -33.54 expect dE=-0.521E-01 dE for cont linesearch -0.115E-02
 trial: gam= 1.28760 g(F)=  0.155E-02 g(S)=  0.000E+00 ort = 0.206E-03 (trialstep = 0.297E+01)
 search vector abs. value=  0.413E-02
 bond charge predicted
       N       E                     dE             d eps       ncg     rms          rms(c)
DAV:   1    -0.734394861540E+02    0.70502E-03   -0.18485E+00  6560   0.498E+00    0.216E-01
RMM:   2    -0.734718474623E+02   -0.32361E-01   -0.43952E-02  6634   0.845E-01    0.184E+00
RMM:   3    -0.734431813969E+02    0.28666E-01   -0.35924E-03  6751   0.279E-01    0.192E-01
RMM:   4    -0.734440647460E+02   -0.88335E-03   -0.15051E-03  6610   0.177E-01    0.326E-01
RMM:   5    -0.734432908907E+02    0.77386E-03   -0.33514E-04  6608   0.782E-02    0.249E-01
RMM:   6    -0.734434007985E+02   -0.10991E-03   -0.16900E-04  6577   0.430E-02    0.207E-01
RMM:   7    -0.734430016217E+02    0.39918E-03   -0.27130E-04  6577   0.675E-02    0.140E-01
RMM:   8    -0.734428711414E+02    0.13048E-03   -0.18200E-04  6619   0.515E-02    0.454E-02
RMM:   9    -0.734428651551E+02    0.59863E-05   -0.36749E-05  4660   0.310E-02
  16 F= -.73442865E+02 E0= -.73359431E+02  d E =-.267579E-02
 trial-energy change:   -0.002676  1 .order   -0.003133   -0.005391   -0.000874
 step:   3.5407(harm=  3.5407)  dis= 0.00349  next Energy=   -73.443407 (dE=-0.322E-02)
 bond charge predicted
       N       E                     dE             d eps       ncg     rms          rms(c)
DAV:   1    -0.734428402702E+02    0.30871E-04   -0.68882E-02  6560   0.964E-01    0.477E-02
RMM:   2    -0.734435086319E+02   -0.66836E-03   -0.16046E-03  6633   0.163E-01    0.248E-01
RMM:   3    -0.734431989834E+02    0.30965E-03   -0.18606E-04  6778   0.588E-02    0.169E-01
RMM:   4    -0.734430594292E+02    0.13955E-03   -0.88737E-05  6201   0.522E-02    0.694E-02
RMM:   5    -0.734430129094E+02    0.46520E-04   -0.16146E-05  3792   0.183E-02    0.626E-02
RMM:   6    -0.734430143222E+02   -0.14127E-05   -0.77477E-06  3534   0.155E-02
  17 F= -.73443014E+02 E0= -.73359651E+02  d E =-.282496E-02
 curvature:  -4.02 expect dE=-0.480E-02 dE for cont linesearch -0.226E-05
 trial: gam= 0.97753 g(F)=  0.120E-02 g(S)=  0.000E+00 ort =-0.482E-04 (trialstep = 0.252E+01)
 search vector abs. value=  0.504E-02
 bond charge predicted
       N       E                     dE             d eps       ncg     rms          rms(c)
DAV:   1    -0.734435327660E+02   -0.51986E-03   -0.16615E+00  6560   0.425E+00    0.352E-01
RMM:   2    -0.736027817022E+02   -0.15925E+00   -0.40692E-02  6798   0.739E-01    0.539E+00
RMM:   3    -0.734620354617E+02    0.14075E+00   -0.22311E-02  6646   0.558E-01    0.110E+00
RMM:   4    -0.734465215030E+02    0.15514E-01   -0.82719E-03  6600   0.389E-01    0.253E-01
RMM:   5    -0.734461687230E+02    0.35278E-03   -0.98106E-04  6749   0.134E-01    0.197E-01
RMM:   6    -0.734456682496E+02    0.50047E-03   -0.27139E-04  6580   0.646E-02    0.845E-02
RMM:   7    -0.734456751005E+02   -0.68509E-05   -0.33661E-04  6594   0.714E-02    0.979E-02
RMM:   8    -0.734455847215E+02    0.90379E-04   -0.10772E-04  6517   0.392E-02    0.461E-02
RMM:   9    -0.734455787354E+02    0.59862E-05   -0.17532E-05  3735   0.204E-02
  18 F= -.73445579E+02 E0= -.73362522E+02  d E =-.256441E-02
 ZBRENT: can't locate minimum, use default step
 trial-energy change:   -0.002564  1 .order   -0.002599   -0.002894   -0.002303
 step:  10.0825(harm= 12.3424)  dis= 0.01708  next Energy=   -73.450100 (dE=-0.709E-02)
 bond charge predicted
       N       E                     dE             d eps       ncg     rms          rms(c)
DAV:   1    -0.734244796846E+02    0.21105E-01   -0.14950E+01  6580   0.128E+01    0.921E-01
RMM:   2    -0.741546232287E+02   -0.73014E+00   -0.29525E-01  6668   0.217E+00    0.100E+01
RMM:   3    -0.735515901986E+02    0.60303E+00   -0.10542E-01  6650   0.120E+00    0.302E+00
RMM:   4    -0.734526153074E+02    0.98975E-01   -0.28406E-02  6635   0.659E-01    0.653E-01
RMM:   5    -0.734486100754E+02    0.40052E-02   -0.58432E-03  6627   0.321E-01    0.511E-01
RMM:   6    -0.734457482180E+02    0.28619E-02   -0.17520E-03  6601   0.171E-01    0.283E-01
RMM:   7    -0.734456442217E+02    0.10400E-03   -0.31812E-03  6603   0.210E-01    0.227E-01
RMM:   8    -0.734450914723E+02    0.55275E-03   -0.93115E-04  6638   0.116E-01    0.607E-02
RMM:   9    -0.734451106357E+02   -0.19163E-04   -0.17870E-04  6574   0.598E-02    0.646E-02
RMM:  10    -0.734450478074E+02    0.62828E-04   -0.47228E-05  5446   0.318E-02    0.239E-02
RMM:  11    -0.734450491543E+02   -0.13469E-05   -0.28240E-05  4107   0.234E-02
  19 F= -.73445049E+02 E0= -.73363104E+02  d E =-.203483E-02
 curvature: -25.67 expect dE=-0.434E-01 dE for cont linesearch -0.514E-02
 ZBRENT: interpolating
 opt :   6.1220  next Energy=   -73.447224 (dE=-0.421E-02)
 bond charge predicted
       N       E                     dE             d eps       ncg     rms          rms(c)
DAV:   1    -0.734417895621E+02    0.32582E-02   -0.40978E+00  6580   0.668E+00    0.517E-01
RMM:   2    -0.736534944930E+02   -0.21170E+00   -0.10850E-01  6770   0.127E+00    0.465E+00
RMM:   3    -0.734918388370E+02    0.16166E+00   -0.34122E-02  6680   0.656E-01    0.170E+00
RMM:   4    -0.734485789103E+02    0.43260E-01   -0.11928E-02  6627   0.449E-01    0.221E-01
RMM:   5    -0.734484395879E+02    0.13932E-03   -0.17043E-03  6776   0.164E-01    0.237E-01
RMM:   6    -0.734476707880E+02    0.76880E-03   -0.54505E-04  6616   0.918E-02    0.111E-01
RMM:   7    -0.734478526302E+02   -0.18184E-03   -0.70933E-04  6634   0.105E-01    0.183E-01
RMM:   8    -0.734475651823E+02    0.28745E-03   -0.37521E-04  6611   0.762E-02    0.931E-02
RMM:   9    -0.734474980326E+02    0.67150E-04   -0.66527E-05  5982   0.341E-02    0.372E-02
RMM:  10    -0.734474878945E+02    0.10138E-04   -0.12849E-05  3668   0.201E-02    0.111E-02
RMM:  11    -0.734474852160E+02    0.26784E-05   -0.87761E-06  3553   0.176E-02
  20 F= -.73447485E+02 E0= -.73364956E+02  d E =-.447089E-02
 curvature:  -8.22 expect dE=-0.607E-02 dE for cont linesearch -0.411E-04
 trial: gam= 0.28925 g(F)=  0.739E-03 g(S)=  0.000E+00 ort =-0.159E-03 (trialstep = 0.324E+01)
 search vector abs. value=  0.107E-02
 bond charge predicted
       N       E                     dE             d eps       ncg     rms          rms(c)
DAV:   1    -0.734485813867E+02   -0.10935E-02   -0.59865E-01  6600   0.216E+00    0.341E-01
RMM:   2    -0.737488743751E+02   -0.30029E+00   -0.35111E-02  6752   0.578E-01    0.702E+00
RMM:   3    -0.734542494956E+02    0.29462E+00   -0.28065E-02  6656   0.576E-01    0.679E-01
RMM:   4    -0.734490067324E+02    0.52428E-02   -0.73460E-03  6596   0.378E-01    0.239E-01
RMM:   5    -0.734488072802E+02    0.19945E-03   -0.84152E-04  6693   0.133E-01    0.142E-01
RMM:   6    -0.734486936265E+02    0.11365E-03   -0.20761E-04  6747   0.600E-02    0.115E-01
RMM:   7    -0.734486298546E+02    0.63772E-04   -0.90901E-05  5965   0.339E-02    0.676E-02
RMM:   8    -0.734486333154E+02   -0.34608E-05   -0.55087E-05  5542   0.305E-02
  21 F= -.73448633E+02 E0= -.73365904E+02  d E =-.114810E-02
 trial-energy change:   -0.001148  1 .order   -0.001029   -0.002245    0.000187
 step:   3.0457(harm=  2.9919)  dis= 0.00129  next Energy=   -73.448639 (dE=-0.115E-02)
 bond charge predicted
       N       E                     dE             d eps       ncg     rms          rms(c)
DAV:   1    -0.734486295750E+02    0.27960E-06   -0.22955E-03  7460   0.149E-01    0.166E-02
RMM:   2    -0.734492800137E+02   -0.65044E-03   -0.11505E-04  6530   0.399E-02    0.287E-01
RMM:   3    -0.734486352173E+02    0.64480E-03   -0.61599E-05  5680   0.378E-02    0.470E-02
RMM:   4    -0.734486376771E+02   -0.24598E-05   -0.22206E-05  4042   0.320E-02
  22 F= -.73448638E+02 E0= -.73365988E+02  d E =-.115246E-02
 curvature:  -2.20 expect dE=-0.941E-03 dE for cont linesearch -0.128E-04
 trial: gam= 0.58522 g(F)=  0.428E-03 g(S)=  0.000E+00 ort =-0.788E-04 (trialstep = 0.320E+01)
 search vector abs. value=  0.701E-03
 bond charge predicted
       N       E                     dE             d eps       ncg     rms          rms(c)
DAV:   1    -0.734489303390E+02   -0.29512E-03   -0.38621E-01  7280   0.207E+00    0.112E-01
RMM:   2    -0.734687518447E+02   -0.19822E-01   -0.80494E-03  6728   0.358E-01    0.167E+00
RMM:   3    -0.734496524053E+02    0.19099E-01   -0.22560E-03  6657   0.206E-01    0.236E-01
RMM:   4    -0.734496989550E+02   -0.46550E-04   -0.67321E-04  6608   0.140E-01    0.127E-01
RMM:   5    -0.734495812805E+02    0.11767E-03   -0.10613E-04  6497   0.487E-02    0.779E-02
RMM:   6    -0.734495003802E+02    0.80900E-04   -0.40246E-05  4816   0.262E-02    0.495E-02
RMM:   7    -0.734494893127E+02    0.11068E-04   -0.32657E-05  4249   0.262E-02    0.410E-02
RMM:   8    -0.734494863392E+02    0.29734E-05   -0.46073E-05  5336   0.311E-02
  23 F= -.73449486E+02 E0= -.73366706E+02  d E =-.848662E-03
 trial-energy change:   -0.000849  1 .order   -0.000848   -0.001221   -0.000474
 step:   5.2346(harm=  5.2346)  dis= 0.00554  next Energy=   -73.449636 (dE=-0.998E-03)
 bond charge predicted
       N       E                     dE             d eps       ncg     rms          rms(c)
DAV:   1    -0.734493940391E+02    0.95274E-04   -0.15515E-01  7260   0.131E+00    0.685E-02
RMM:   2    -0.734561724862E+02   -0.67784E-02   -0.32234E-03  6686   0.234E-01    0.943E-01
RMM:   3    -0.734496027386E+02    0.65697E-02   -0.80827E-04  6646   0.129E-01    0.150E-01
RMM:   4    -0.734497032915E+02   -0.10055E-03   -0.23871E-04  6556   0.914E-02    0.734E-02
RMM:   5    -0.734496645891E+02    0.38702E-04   -0.31923E-05  4275   0.284E-02    0.509E-02
RMM:   6    -0.734496323937E+02    0.32195E-04   -0.16885E-05  3684   0.245E-02    0.326E-02
RMM:   7    -0.734496270943E+02    0.52994E-05   -0.13325E-05  3624   0.168E-02
  24 F= -.73449627E+02 E0= -.73366864E+02  d E =-.989417E-03
 curvature:  -4.81 expect dE=-0.178E-03 dE for cont linesearch -0.515E-05
 trial: gam= 0.09278 g(F)=  0.370E-04 g(S)=  0.000E+00 ort = 0.274E-04 (trialstep = 0.361E+01)
 search vector abs. value=  0.481E-04
 bond charge predicted
       N       E                     dE             d eps       ncg     rms          rms(c)
DAV:   1    -0.734497034560E+02   -0.71062E-04   -0.31511E-02  7200   0.622E-01    0.404E-02
RMM:   2    -0.734520442220E+02   -0.23408E-02   -0.84970E-04  6856   0.122E-01    0.563E-01
RMM:   3    -0.734497729948E+02    0.22712E-02   -0.25892E-04  6594   0.755E-02    0.955E-02
RMM:   4    -0.734497696475E+02    0.33472E-05   -0.89418E-05  6038   0.588E-02
  25 F= -.73449770E+02 E0= -.73367007E+02  d E =-.142553E-03
 trial-energy change:   -0.000143  1 .order   -0.000124   -0.000143   -0.000106
 step:  14.1215(harm= 14.1215)  dis= 0.00223  next Energy=   -73.449906 (dE=-0.279E-03)
 bond charge predicted
       N       E                     dE             d eps       ncg     rms          rms(c)
DAV:   1    -0.734496136077E+02    0.15939E-03   -0.27022E-01  7240   0.182E+00    0.102E-01
RMM:   2    -0.734639794791E+02   -0.14366E-01   -0.62176E-03  6767   0.318E-01    0.133E+00
RMM:   3    -0.734500783786E+02    0.13901E-01   -0.14694E-03  6669   0.173E-01    0.218E-01
RMM:   4    -0.734503723525E+02   -0.29397E-03   -0.51057E-04  6620   0.126E-01    0.147E-01
RMM:   5    -0.734501179827E+02    0.25437E-03   -0.85715E-05  6108   0.365E-02    0.101E-01
RMM:   6    -0.734500354477E+02    0.82535E-04   -0.49169E-05  5273   0.305E-02    0.479E-02
RMM:   7    -0.734500191856E+02    0.16262E-04   -0.50417E-05  5169   0.331E-02    0.365E-02
RMM:   8    -0.734500053633E+02    0.13822E-04   -0.19701E-05  3776   0.232E-02    0.141E-02
RMM:   9    -0.734500059091E+02   -0.54571E-06   -0.52107E-06  3530   0.150E-02
  26 F= -.73450006E+02 E0= -.73367406E+02  d E =-.378815E-03
 curvature:  -8.59 expect dE=-0.750E-03 dE for cont linesearch -0.135E-03
 ZBRENT: increasing intervall
 opt :  35.1476  next Energy=   -73.450543 (dE=-0.916E-03)
 bond charge predicted
       N       E                     dE             d eps       ncg     rms          rms(c)
DAV:   1    -0.734485946687E+02    0.14107E-02   -0.10786E+00  6560   0.363E+00    0.166E-01
RMM:   2    -0.734576227657E+02   -0.90281E-02   -0.20372E-02  6630   0.591E-01    0.103E+00
RMM:   3    -0.734528142118E+02    0.48086E-02   -0.24439E-03  6873   0.215E-01    0.539E-01
RMM:   4    -0.734511807926E+02    0.16334E-02   -0.96867E-04  6630   0.159E-01    0.278E-01
RMM:   5    -0.734505849644E+02    0.59583E-03   -0.26248E-04  6558   0.649E-02    0.145E-01
RMM:   6    -0.734504274206E+02    0.15754E-03   -0.13714E-04  6505   0.485E-02    0.947E-02
RMM:   7    -0.734504322672E+02   -0.48466E-05   -0.15981E-04  6650   0.478E-02    0.810E-02
RMM:   8    -0.734503515855E+02    0.80682E-04   -0.70349E-05  5967   0.326E-02    0.376E-02
RMM:   9    -0.734503396529E+02    0.11933E-04   -0.11836E-05  3697   0.199E-02    0.206E-02
RMM:  10    -0.734503389766E+02    0.67635E-06   -0.43075E-06  3536   0.128E-02
  27 F= -.73450339E+02 E0= -.73367979E+02  d E =-.711882E-03
 curvature: -34.20 expect dE=-0.252E-01 dE for cont linesearch -0.188E-04
 trial: gam=20.44499 g(F)=  0.736E-03 g(S)=  0.000E+00 ort =-0.514E-05 (trialstep = 0.231E-01)
 search vector abs. value=  0.206E-01
 bond charge predicted
       N       E                     dE             d eps       ncg     rms          rms(c)
DAV:   1    -0.734503545133E+02   -0.14860E-04   -0.55171E-04  7400   0.801E-02    0.111E-02
RMM:   2    -0.734508278557E+02   -0.47334E-03   -0.54944E-05  5410   0.252E-02    0.244E-01
RMM:   3    -0.734503401934E+02    0.48766E-03   -0.38708E-05  4874   0.340E-02    0.145E-02
RMM:   4    -0.734503579311E+02   -0.17738E-04   -0.10637E-05  3722   0.234E-02    0.738E-03
RMM:   5    -0.734503581533E+02   -0.22215E-06   -0.23577E-06  3505   0.114E-02
  28 F= -.73450358E+02 E0= -.73368006E+02  d E =-.191767E-04
 ZBRENT: can't locate minimum, use default step
 trial-energy change:   -0.000019  1 .order   -0.000014   -0.000015   -0.000014
 step:   0.0925(harm=  0.3644)  dis= 0.00031  next Energy=   -73.450454 (dE=-0.115E-03)
 bond charge predicted
       N       E                     dE             d eps       ncg     rms          rms(c)
DAV:   1    -0.734503970388E+02   -0.39108E-04   -0.50550E-03  7280   0.238E-01    0.173E-02
RMM:   2    -0.734511099095E+02   -0.71287E-03   -0.15256E-04  6580   0.467E-02    0.305E-01
RMM:   3    -0.734503856602E+02    0.72425E-03   -0.69097E-05  5810   0.406E-02    0.284E-02
RMM:   4    -0.734504078450E+02   -0.22185E-04   -0.17980E-05  3931   0.304E-02    0.184E-02
RMM:   5    -0.734504056645E+02    0.21805E-05   -0.38652E-06  3554   0.149E-02
  29 F= -.73450406E+02 E0= -.73368072E+02  d E =-.666879E-04
 curvature:  -2.18 expect dE=-0.154E-02 dE for cont linesearch -0.411E-04
 trial: gam=-0.01916 g(F)=  0.705E-03 g(S)=  0.000E+00 ort = 0.624E-03 (trialstep = 0.370E-01)
 search vector abs. value=  0.689E-03
 reached required accuracy - stopping structural energy minimisation
 writing wavefunctions
