 vasp.5.4.1 05Feb16 (build Nov 22 2018 20:17:51) complex                        
  
 POSCAR found type information on POSCAR  Cu Ag
 04/POSCAR found :  2 types and      37 ions
 scaLAPACK will be used

 ----------------------------------------------------------------------------- 
|                                                                             |
|           W    W    AA    RRRRR   N    N  II  N    N   GGGG   !!!           |
|           W    W   A  A   R    R  NN   N  II  NN   N  G    G  !!!           |
|           W    W  A    A  R    R  N N  N  II  N N  N  G       !!!           |
|           W WW W  AAAAAA  RRRRR   N  N N  II  N  N N  G  GGG   !            |
|           WW  WW  A    A  R   R   N   NN  II  N   NN  G    G                |
|           W    W  A    A  R    R  N    N  II  N    N   GGGG   !!!           |
|                                                                             |
|      For optimal performance we recommend to set                            |
|        NCORE= 4 - approx SQRT( number of cores)                             |
|      NCORE specifies how many cores store one orbital (NPAR=cpu/NCORE).     |
|      This setting can  greatly improve the performance of VASP for DFT.     |
|      The default, NPAR=number of cores might be grossly inefficient         |
|      on modern multi-core architectures or massively parallel machines.     |
|      Do your own testing !!!!                                               |
|      Unfortunately you need to use the default for GW and RPA calculations. |
|      (for HF NCORE is supported but not extensively tested yet)             |
|                                                                             |
 ----------------------------------------------------------------------------- 

 LDA part: xc-table for Ceperly-Alder, standard interpolation
 POSCAR found type information on POSCAR  Cu Ag
 00/POSCAR found :  2 types and      37 ions
 POSCAR found type information on POSCAR  Cu Ag
 05/POSCAR found :  2 types and      37 ions
 Jacobian:    19.6723208379109     
 POSCAR, INCAR and KPOINTS ok, starting setup
 WARNING: small aliasing (wrap around) errors must be expected
 FFT: planning ...
 WAVECAR not read
 entering main loop
       N       E                     dE             d eps       ncg     rms          rms(c)
DAV:   1     0.307196492316E+04    0.30720E+04   -0.17814E+05  4500   0.175E+03
DAV:   2     0.167288254554E+03   -0.29047E+04   -0.27602E+04  4500   0.400E+02
DAV:   3    -0.144413250577E+03   -0.31170E+03   -0.29416E+03  4670   0.165E+02
DAV:   4    -0.155855657401E+03   -0.11442E+02   -0.11314E+02  4800   0.358E+01
DAV:   5    -0.155953055405E+03   -0.97398E-01   -0.97330E-01  4880   0.277E+00    0.397E+01
DAV:   6    -0.141110609066E+03    0.14842E+02   -0.31096E+02  4880   0.929E+01    0.200E+01
DAV:   7    -0.128322380684E+03    0.12788E+02   -0.60854E+01  5040   0.482E+01    0.296E+00
DAV:   8    -0.128859177716E+03   -0.53680E+00   -0.62183E+00  5260   0.355E+01    0.461E+00
DAV:   9    -0.128325702212E+03    0.53348E+00   -0.25233E+00  5720   0.280E+01    0.255E+00
DAV:  10    -0.128235439125E+03    0.90263E-01   -0.65018E-01  6140   0.985E+00    0.185E+00
DAV:  11    -0.128195352674E+03    0.40086E-01   -0.55419E-01  4770   0.602E+00    0.796E-01
DAV:  12    -0.128198153672E+03   -0.28010E-02   -0.12291E-01  4880   0.193E+00    0.581E-01
DAV:  13    -0.128191978084E+03    0.61756E-02   -0.32813E-02  4840   0.210E+00    0.401E-01
DAV:  14    -0.128187180245E+03    0.47978E-02   -0.11854E-02  4980   0.114E+00    0.205E-01
DAV:  15    -0.128183534815E+03    0.36454E-02   -0.13649E-02  4700   0.988E-01    0.189E-01
DAV:  16    -0.128181458988E+03    0.20758E-02   -0.65055E-03  4690   0.575E-01    0.845E-02
DAV:  17    -0.128181144101E+03    0.31489E-03   -0.16934E-03  4680   0.368E-01    0.677E-02
DAV:  18    -0.128182582154E+03   -0.14381E-02   -0.13913E-03  5180   0.681E-01    0.953E-02
DAV:  19    -0.128183660324E+03   -0.10782E-02   -0.40789E-03  6500   0.132E+00    0.640E-02
DAV:  20    -0.128185152270E+03   -0.14919E-02   -0.13240E-03  4670   0.185E-01    0.635E-02
DAV:  21    -0.128185327912E+03   -0.17564E-03   -0.53271E-04  3780   0.451E-01    0.305E-02
DAV:  22    -0.128186147010E+03   -0.81910E-03   -0.70540E-04  4640   0.127E-01    0.253E-02
DAV:  23    -0.128186223452E+03   -0.76442E-04   -0.62191E-05  4600   0.767E-02    0.132E-02
DAV:  24    -0.128186273482E+03   -0.50029E-04   -0.17283E-05  3140   0.330E-02    0.848E-03
DAV:  25    -0.128186289208E+03   -0.15727E-04   -0.14803E-05  2980   0.612E-02    0.527E-03
DAV:  26    -0.128186299895E+03   -0.10687E-04   -0.99932E-06  2840   0.612E-02    0.781E-03
DAV:  27    -0.128186294412E+03    0.54837E-05   -0.17375E-05  3180   0.517E-02
   1 F= -.12818629E+03 E0= -.12814676E+03  d E =-.128186E+03
quench:  g(F)=  0.000E+00 g(S)=  0.000E+00 dE (1.order)= 0.000E+00
 bond charge predicted
       N       E                     dE             d eps       ncg     rms          rms(c)
DAV:   1    -0.128187132292E+03   -0.83240E-03   -0.18583E-02  4680   0.284E-01    0.921E-03
DAV:   2    -0.128187141615E+03   -0.93222E-05   -0.56788E-05  3760   0.107E-01
   2 F= -.12818714E+03 E0= -.12814758E+03  d E =-.847203E-03
quench:  g(F)=  0.000E+00 g(S)=  0.000E+00 dE (1.order)= 0.000E+00
 bond charge predicted
       N       E                     dE             d eps       ncg     rms          rms(c)
DAV:   1    -0.128193607343E+03   -0.64751E-02   -0.19405E+00  4500   0.292E+00    0.915E-02
DAV:   2    -0.128194186996E+03   -0.57965E-03   -0.79823E-03  4750   0.456E-01    0.774E-02
DAV:   3    -0.128194181963E+03    0.50329E-05   -0.13010E-03  4850   0.412E-01    0.558E-02
DAV:   4    -0.128194105916E+03    0.76047E-04   -0.20203E-04  4810   0.207E-01    0.172E-02
DAV:   5    -0.128194151294E+03   -0.45378E-04   -0.21546E-04  5250   0.320E-01    0.288E-02
DAV:   6    -0.128194097857E+03    0.53437E-04   -0.11348E-04  4340   0.244E-01    0.387E-03
DAV:   7    -0.128194100671E+03   -0.28140E-05   -0.37232E-05  4400   0.288E-02
   3 F= -.12819410E+03 E0= -.12815457E+03  d E =-.695906E-02
quench:  g(F)=  0.000E+00 g(S)=  0.000E+00 dE (1.order)= 0.000E+00
 bond charge predicted
       N       E                     dE             d eps       ncg     rms          rms(c)
DAV:   1    -0.128199931625E+03   -0.58338E-02   -0.71007E+00  4500   0.564E+00    0.165E-01
DAV:   2    -0.128201481538E+03   -0.15499E-02   -0.22711E-02  4730   0.819E-01    0.145E-01
DAV:   3    -0.128201384798E+03    0.96740E-04   -0.38908E-03  4670   0.735E-01    0.993E-02
DAV:   4    -0.128201119791E+03    0.26501E-03   -0.85442E-04  6120   0.293E-01    0.309E-02
DAV:   5    -0.128201120491E+03   -0.69982E-06   -0.23682E-04  4770   0.204E-01    0.174E-02
DAV:   6    -0.128201125625E+03   -0.51344E-05   -0.10084E-04  4770   0.198E-01    0.143E-02
DAV:   7    -0.128201114265E+03    0.11361E-04   -0.35090E-05  2960   0.127E-01    0.690E-03
DAV:   8    -0.128201114206E+03    0.58324E-07   -0.16839E-05  2800   0.377E-02
   4 F= -.12820111E+03 E0= -.12816153E+03  d E =-.701354E-02
quench:  g(F)=  0.000E+00 g(S)=  0.000E+00 dE (1.order)= 0.000E+00
 bond charge predicted
       N       E                     dE             d eps       ncg     rms          rms(c)
DAV:   1    -0.128203011004E+03   -0.18967E-02   -0.34260E+00  4500   0.394E+00    0.109E-01
DAV:   2    -0.128203587494E+03   -0.57649E-03   -0.92550E-03  4660   0.435E-01    0.827E-02
DAV:   3    -0.128203539973E+03    0.47521E-04   -0.13108E-03  4890   0.471E-01    0.740E-02
DAV:   4    -0.128203453278E+03    0.86695E-04   -0.54614E-04  5340   0.473E-01    0.337E-02
DAV:   5    -0.128203419211E+03    0.34067E-04   -0.39732E-04  6570   0.417E-01    0.205E-02
DAV:   6    -0.128203396652E+03    0.22559E-04   -0.96726E-05  4930   0.165E-01    0.694E-03
DAV:   7    -0.128203399566E+03   -0.29147E-05   -0.43606E-05  4470   0.275E-02
   5 F= -.12820340E+03 E0= -.12816373E+03  d E =-.228536E-02
quench:  g(F)=  0.000E+00 g(S)=  0.000E+00 dE (1.order)= 0.000E+00
 bond charge predicted
       N       E                     dE             d eps       ncg     rms          rms(c)
DAV:   1    -0.128203170934E+03    0.22572E-03   -0.50947E+00  4500   0.480E+00    0.130E-01
DAV:   2    -0.128204284980E+03   -0.11140E-02   -0.16135E-02  4570   0.548E-01    0.101E-01
DAV:   3    -0.128204220431E+03    0.64549E-04   -0.19079E-03  4620   0.510E-01    0.818E-02
DAV:   4    -0.128204089811E+03    0.13062E-03   -0.62882E-04  4940   0.511E-01    0.402E-02
DAV:   5    -0.128204127516E+03   -0.37705E-04   -0.67554E-04  5600   0.591E-01    0.394E-02
DAV:   6    -0.128204027530E+03    0.99987E-04   -0.31267E-04  6640   0.339E-01    0.786E-03
DAV:   7    -0.128204032841E+03   -0.53112E-05   -0.80542E-05  4700   0.426E-02
   6 F= -.12820403E+03 E0= -.12816430E+03  d E =-.633274E-03
quench:  g(F)=  0.000E+00 g(S)=  0.000E+00 dE (1.order)= 0.000E+00
 bond charge predicted
       N       E                     dE             d eps       ncg     rms          rms(c)
DAV:   1    -0.128203432317E+03    0.59521E-03   -0.81468E-01  4630   0.169E+00    0.433E-02
DAV:   2    -0.128203845133E+03   -0.41282E-03   -0.46093E-03  4930   0.238E-01    0.389E-02
DAV:   3    -0.128203841723E+03    0.34097E-05   -0.30953E-04  4850   0.168E-01    0.262E-02
DAV:   4    -0.128203829898E+03    0.11825E-04   -0.39850E-05  4590   0.895E-02    0.190E-02
DAV:   5    -0.128203821830E+03    0.80673E-05   -0.35354E-05  3870   0.789E-02
   7 F= -.12820382E+03 E0= -.12816411E+03  d E =0.211010E-03
quench:  g(F)=  0.000E+00 g(S)=  0.000E+00 dE (1.order)= 0.000E+00
 bond charge predicted
       N       E                     dE             d eps       ncg     rms          rms(c)
DAV:   1    -0.128203677456E+03    0.15244E-03   -0.17771E-01  4560   0.851E-01    0.234E-02
DAV:   2    -0.128203767359E+03   -0.89903E-04   -0.82555E-04  6310   0.264E-01    0.282E-02
DAV:   3    -0.128203747833E+03    0.19527E-04   -0.23136E-04  4760   0.267E-01    0.173E-02
DAV:   4    -0.128203744946E+03    0.28861E-05   -0.64383E-05  4650   0.958E-02
   8 F= -.12820374E+03 E0= -.12816403E+03  d E =0.768840E-04
quench:  g(F)=  0.000E+00 g(S)=  0.000E+00 dE (1.order)= 0.000E+00
 bond charge predicted
       N       E                     dE             d eps       ncg     rms          rms(c)
DAV:   1    -0.128203489191E+03    0.25864E-03   -0.21364E-01  4520   0.893E-01    0.248E-02
DAV:   2    -0.128203584947E+03   -0.95756E-04   -0.11147E-03  4760   0.107E-01    0.207E-02
DAV:   3    -0.128203580982E+03    0.39651E-05   -0.59439E-05  4800   0.848E-02
   9 F= -.12820358E+03 E0= -.12816387E+03  d E =0.163965E-03
quench:  g(F)=  0.000E+00 g(S)=  0.000E+00 dE (1.order)= 0.000E+00
 bond charge predicted
       N       E                     dE             d eps       ncg     rms          rms(c)
DAV:   1    -0.128202844891E+03    0.74006E-03   -0.68343E-01  4500   0.155E+00    0.434E-02
DAV:   2    -0.128203169561E+03   -0.32467E-03   -0.36785E-03  6200   0.284E-01    0.412E-02
DAV:   3    -0.128203174569E+03   -0.50072E-05   -0.41474E-04  4800   0.341E-01    0.334E-02
DAV:   4    -0.128203145204E+03    0.29364E-04   -0.11889E-04  4640   0.213E-01    0.212E-02
DAV:   5    -0.128203135322E+03    0.98826E-05   -0.79285E-05  5220   0.112E-01
  10 F= -.12820314E+03 E0= -.12816340E+03  d E =0.445660E-03
quench:  g(F)=  0.000E+00 g(S)=  0.000E+00 dE (1.order)= 0.000E+00
 bond charge predicted
       N       E                     dE             d eps       ncg     rms          rms(c)
DAV:   1    -0.128201704464E+03    0.14407E-02   -0.25149E+00  4500   0.318E+00    0.803E-02
DAV:   2    -0.128202568422E+03   -0.86396E-03   -0.10365E-02  4800   0.344E-01    0.660E-02
DAV:   3    -0.128202524109E+03    0.44313E-04   -0.65925E-04  4970   0.285E-01    0.500E-02
DAV:   4    -0.128202471705E+03    0.52405E-04   -0.16776E-04  5030   0.251E-01    0.310E-02
DAV:   5    -0.128202526058E+03   -0.54353E-04   -0.32740E-04  5680   0.415E-01    0.373E-02
DAV:   6    -0.128202437422E+03    0.88636E-04   -0.20895E-04  6410   0.298E-01    0.725E-03
DAV:   7    -0.128202441204E+03   -0.37819E-05   -0.55732E-05  4620   0.367E-02
  11 F= -.12820244E+03 E0= -.12816276E+03  d E =0.694118E-03
quench:  g(F)=  0.000E+00 g(S)=  0.000E+00 dE (1.order)= 0.000E+00
 bond charge predicted
       N       E                     dE             d eps       ncg     rms          rms(c)
DAV:   1    -0.127931281266E+03    0.27116E+00   -0.28225E+02  4500   0.339E+01    0.102E+00
DAV:   2    -0.128107327236E+03   -0.17605E+00   -0.19869E+00  5090   0.711E+00    0.110E+00
DAV:   3    -0.128098356847E+03    0.89704E-02   -0.18629E-01  4950   0.577E+00    0.536E-01
DAV:   4    -0.128099670061E+03   -0.13132E-02   -0.47975E-02  5430   0.425E+00    0.520E-01
DAV:   5    -0.128090898612E+03    0.87714E-02   -0.34494E-02  5230   0.395E+00    0.300E-01
DAV:   6    -0.128089479343E+03    0.14193E-02   -0.23756E-02  6040   0.127E+00    0.118E-01
DAV:   7    -0.128089384459E+03    0.94884E-04   -0.46853E-03  4910   0.645E-01    0.740E-02
DAV:   8    -0.128089446186E+03   -0.61727E-04   -0.26296E-03  4710   0.402E-01    0.491E-02
DAV:   9    -0.128089434745E+03    0.11440E-04   -0.72606E-04  4700   0.208E-01    0.255E-02
DAV:  10    -0.128089429126E+03    0.56192E-05   -0.72156E-05  4700   0.119E-01
  12 F= -.12808943E+03 E0= -.12804790E+03  d E =0.113012E+00
quench:  g(F)=  0.000E+00 g(S)=  0.000E+00 dE (1.order)= 0.000E+00
 bond charge predicted
       N       E                     dE             d eps       ncg     rms          rms(c)
DAV:   1    -0.128148269646E+03   -0.58835E-01   -0.84689E+01  4500   0.200E+01    0.641E-01
DAV:   2    -0.128184354212E+03   -0.36085E-01   -0.44442E-01  4740   0.401E+00    0.635E-01
DAV:   3    -0.128183071066E+03    0.12831E-02   -0.72106E-02  4920   0.352E+00    0.349E-01
DAV:   4    -0.128187289503E+03   -0.42184E-02   -0.24164E-02  4950   0.345E+00    0.338E-01
DAV:   5    -0.128179913901E+03    0.73756E-02   -0.16889E-02  5050   0.298E+00    0.107E-01
DAV:   6    -0.128180044204E+03   -0.13030E-03   -0.51783E-03  5090   0.589E-01    0.508E-02
DAV:   7    -0.128180113211E+03   -0.69007E-04   -0.14160E-03  4750   0.264E-01    0.280E-02
DAV:   8    -0.128180119294E+03   -0.60829E-05   -0.33349E-04  4720   0.147E-01    0.207E-02
DAV:   9    -0.128180113154E+03    0.61399E-05   -0.69435E-05  4750   0.710E-02
  13 F= -.12818011E+03 E0= -.12814026E+03  d E =-.906840E-01
quench:  g(F)=  0.000E+00 g(S)=  0.000E+00 dE (1.order)= 0.000E+00
 bond charge predicted
       N       E                     dE             d eps       ncg     rms          rms(c)
DAV:   1    -0.128174303584E+03    0.58157E-02   -0.18777E+01  4500   0.721E+00    0.174E-01
DAV:   2    -0.128186070737E+03   -0.11767E-01   -0.12413E-01  4650   0.938E-01    0.154E-01
DAV:   3    -0.128185933995E+03    0.13674E-03   -0.41897E-03  4630   0.520E-01    0.110E-01
DAV:   4    -0.128185795456E+03    0.13854E-03   -0.53287E-04  4760   0.357E-01    0.916E-02
DAV:   5    -0.128185790454E+03    0.50021E-05   -0.80460E-04  5980   0.615E-01    0.786E-02
DAV:   6    -0.128185536412E+03    0.25404E-03   -0.89886E-04  7740   0.612E-01    0.199E-02
DAV:   7    -0.128185531322E+03    0.50902E-05   -0.26130E-04  6020   0.169E-01    0.136E-02
DAV:   8    -0.128185531779E+03   -0.45649E-06   -0.81934E-05  4730   0.574E-02
  14 F= -.12818553E+03 E0= -.12814598E+03  d E =-.541862E-02
quench:  g(F)=  0.000E+00 g(S)=  0.000E+00 dE (1.order)= 0.000E+00
 bond charge predicted
       N       E                     dE             d eps       ncg     rms          rms(c)
DAV:   1    -0.128169786654E+03    0.15745E-01   -0.40672E+01  4500   0.999E+00    0.274E-01
DAV:   2    -0.128196984043E+03   -0.27197E-01   -0.29468E-01  4720   0.142E+00    0.231E-01
DAV:   3    -0.128196864187E+03    0.11986E-03   -0.12999E-02  4740   0.758E-01    0.153E-01
DAV:   4    -0.128196615441E+03    0.24875E-03   -0.11957E-03  4880   0.399E-01    0.127E-01
DAV:   5    -0.128196381378E+03    0.23406E-03   -0.74604E-04  5390   0.538E-01    0.999E-02
DAV:   6    -0.128196170194E+03    0.21118E-03   -0.13197E-03  7250   0.721E-01    0.504E-02
DAV:   7    -0.128196044637E+03    0.12556E-03   -0.79412E-04  7360   0.402E-01    0.195E-02
DAV:   8    -0.128196052028E+03   -0.73910E-05   -0.22911E-04  4920   0.922E-02    0.155E-02
DAV:   9    -0.128196047736E+03    0.42920E-05   -0.43685E-05  4560   0.400E-02
  15 F= -.12819605E+03 E0= -.12815650E+03  d E =-.105160E-01
quench:  g(F)=  0.000E+00 g(S)=  0.000E+00 dE (1.order)= 0.000E+00
 bond charge predicted
       N       E                     dE             d eps       ncg     rms          rms(c)
DAV:   1    -0.128198597437E+03   -0.25454E-02   -0.30879E+00  4500   0.345E+00    0.989E-02
DAV:   2    -0.128200110792E+03   -0.15134E-02   -0.17849E-02  4780   0.535E-01    0.846E-02
DAV:   3    -0.128200126855E+03   -0.16063E-04   -0.17602E-03  4850   0.409E-01    0.557E-02
DAV:   4    -0.128200070044E+03    0.56811E-04   -0.22701E-04  4950   0.239E-01    0.361E-02
DAV:   5    -0.128200118401E+03   -0.48357E-04   -0.27925E-04  5870   0.358E-01    0.360E-02
DAV:   6    -0.128200035302E+03    0.83099E-04   -0.22095E-04  5550   0.330E-01    0.715E-03
DAV:   7    -0.128200040093E+03   -0.47909E-05   -0.63356E-05  4570   0.541E-02
  16 F= -.12820004E+03 E0= -.12816041E+03  d E =-.399236E-02
quench:  g(F)=  0.000E+00 g(S)=  0.000E+00 dE (1.order)= 0.000E+00
 bond charge predicted
       N       E                     dE             d eps       ncg     rms          rms(c)
DAV:   1    -0.128200514361E+03   -0.47906E-03   -0.32250E+00  4500   0.373E+00    0.107E-01
DAV:   2    -0.128201655641E+03   -0.11413E-02   -0.14313E-02  4670   0.640E-01    0.103E-01
DAV:   3    -0.128201650302E+03    0.53396E-05   -0.22400E-03  4890   0.512E-01    0.611E-02
DAV:   4    -0.128201586124E+03    0.64177E-04   -0.30620E-04  4920   0.290E-01    0.370E-02
DAV:   5    -0.128201651592E+03   -0.65468E-04   -0.48693E-04  5060   0.505E-01    0.427E-02
DAV:   6    -0.128201543994E+03    0.10760E-03   -0.26146E-04  6260   0.342E-01    0.601E-03
DAV:   7    -0.128201551862E+03   -0.78683E-05   -0.92908E-05  4710   0.483E-02
  17 F= -.12820155E+03 E0= -.12816185E+03  d E =-.151177E-02
quench:  g(F)=  0.000E+00 g(S)=  0.000E+00 dE (1.order)= 0.000E+00
 bond charge predicted
       N       E                     dE             d eps       ncg     rms          rms(c)
DAV:   1    -0.128201393683E+03    0.15031E-03   -0.14372E+00  4500   0.244E+00    0.697E-02
DAV:   2    -0.128201905745E+03   -0.51206E-03   -0.63513E-03  5170   0.394E-01    0.649E-02
DAV:   3    -0.128201898571E+03    0.71744E-05   -0.88108E-04  4870   0.319E-01    0.405E-02
DAV:   4    -0.128201863454E+03    0.35117E-04   -0.11702E-04  4880   0.143E-01    0.218E-02
DAV:   5    -0.128201900280E+03   -0.36826E-04   -0.16259E-04  5100   0.281E-01    0.283E-02
DAV:   6    -0.128201850549E+03    0.49731E-04   -0.10747E-04  4020   0.234E-01    0.348E-03
DAV:   7    -0.128201854515E+03   -0.39664E-05   -0.42097E-05  4470   0.316E-02
  18 F= -.12820185E+03 E0= -.12816216E+03  d E =-.302653E-03
quench:  g(F)=  0.000E+00 g(S)=  0.000E+00 dE (1.order)= 0.000E+00
 bond charge predicted
       N       E                     dE             d eps       ncg     rms          rms(c)
DAV:   1    -0.128201578522E+03    0.27203E-03   -0.10941E+00  4500   0.218E+00    0.636E-02
DAV:   2    -0.128201888149E+03   -0.30963E-03   -0.41248E-03  5060   0.337E-01    0.576E-02
DAV:   3    -0.128201883478E+03    0.46710E-05   -0.72070E-04  4840   0.296E-01    0.382E-02
DAV:   4    -0.128201851049E+03    0.32429E-04   -0.11465E-04  5250   0.157E-01    0.187E-02
DAV:   5    -0.128201875950E+03   -0.24901E-04   -0.13927E-04  4860   0.270E-01    0.234E-02
DAV:   6    -0.128201842276E+03    0.33674E-04   -0.78824E-05  2910   0.206E-01    0.315E-03
DAV:   7    -0.128201843844E+03   -0.15687E-05   -0.25880E-05  3070   0.381E-02
  19 F= -.12820184E+03 E0= -.12816213E+03  d E =0.106710E-04
quench:  g(F)=  0.000E+00 g(S)=  0.000E+00 dE (1.order)= 0.000E+00
 bond charge predicted
       N       E                     dE             d eps       ncg     rms          rms(c)
DAV:   1    -0.128201742361E+03    0.99915E-04   -0.98427E-02  4500   0.670E-01    0.190E-02
DAV:   2    -0.128201766702E+03   -0.24342E-04   -0.30884E-04  4740   0.121E-01    0.188E-02
DAV:   3    -0.128201768127E+03   -0.14247E-05   -0.86495E-05  4850   0.141E-01
  20 F= -.12820177E+03 E0= -.12816207E+03  d E =0.757175E-04
quench:  g(F)=  0.000E+00 g(S)=  0.000E+00 dE (1.order)= 0.000E+00
 bond charge predicted
       N       E                     dE             d eps       ncg     rms          rms(c)
DAV:   1    -0.128201721699E+03    0.45004E-04   -0.88705E-02  4590   0.635E-01    0.251E-02
DAV:   2    -0.128201765666E+03   -0.43967E-04   -0.42501E-04  5840   0.258E-01    0.278E-02
DAV:   3    -0.128201747741E+03    0.17925E-04   -0.18068E-04  4720   0.264E-01    0.174E-02
DAV:   4    -0.128201742117E+03    0.56245E-05   -0.59898E-05  4640   0.123E-01
  21 F= -.12820174E+03 E0= -.12816203E+03  d E =0.260102E-04
quench:  g(F)=  0.000E+00 g(S)=  0.000E+00 dE (1.order)= 0.000E+00
 bond charge predicted
       N       E                     dE             d eps       ncg     rms          rms(c)
DAV:   1    -0.128201641232E+03    0.10651E-03   -0.10596E-01  4530   0.698E-01    0.211E-02
DAV:   2    -0.128201668864E+03   -0.27632E-04   -0.38954E-04  4640   0.957E-02    0.180E-02
DAV:   3    -0.128201669677E+03   -0.81294E-06   -0.65065E-05  4630   0.118E-01
  22 F= -.12820167E+03 E0= -.12816196E+03  d E =0.724399E-04
quench:  g(F)=  0.000E+00 g(S)=  0.000E+00 dE (1.order)= 0.000E+00
 bond charge predicted
       N       E                     dE             d eps       ncg     rms          rms(c)
DAV:   1    -0.128200929318E+03    0.73955E-03   -0.49058E-01  4500   0.136E+00    0.385E-02
DAV:   2    -0.128201163013E+03   -0.23369E-03   -0.24348E-03  6110   0.346E-01    0.410E-02
DAV:   3    -0.128201143890E+03    0.19123E-04   -0.46467E-04  4680   0.383E-01    0.295E-02
DAV:   4    -0.128201123633E+03    0.20257E-04   -0.12484E-04  4630   0.175E-01    0.177E-02
DAV:   5    -0.128201120335E+03    0.32984E-05   -0.74005E-05  5050   0.855E-02
  23 F= -.12820112E+03 E0= -.12816140E+03  d E =0.549342E-03
quench:  g(F)=  0.000E+00 g(S)=  0.000E+00 dE (1.order)= 0.000E+00
 bond charge predicted
       N       E                     dE             d eps       ncg     rms          rms(c)
DAV:   1    -0.128184912871E+03    0.16211E-01   -0.23966E+01  4500   0.909E+00    0.226E-01
DAV:   2    -0.128196727661E+03   -0.11815E-01   -0.13226E-01  4710   0.110E+00    0.197E-01
DAV:   3    -0.128196463361E+03    0.26430E-03   -0.63718E-03  4910   0.899E-01    0.143E-01
DAV:   4    -0.128196296458E+03    0.16690E-03   -0.18741E-03  5100   0.912E-01    0.121E-01
DAV:   5    -0.128195989044E+03    0.30741E-03   -0.17709E-03  6210   0.907E-01    0.863E-02
DAV:   6    -0.128195679611E+03    0.30943E-03   -0.14771E-03  7200   0.523E-01    0.179E-02
DAV:   7    -0.128195707012E+03   -0.27401E-04   -0.37051E-04  4700   0.103E-01    0.157E-02
DAV:   8    -0.128195703993E+03    0.30198E-05   -0.46304E-05  4560   0.578E-02
  24 F= -.12819570E+03 E0= -.12815581E+03  d E =0.541634E-02
quench:  g(F)=  0.000E+00 g(S)=  0.000E+00 dE (1.order)= 0.000E+00
 bond charge predicted
       N       E                     dE             d eps       ncg     rms          rms(c)
DAV:   1    -0.128196501442E+03   -0.79443E-03   -0.17197E+00  4500   0.280E+00    0.782E-02
DAV:   2    -0.128197019868E+03   -0.51843E-03   -0.68817E-03  4700   0.375E-01    0.648E-02
DAV:   3    -0.128196999723E+03    0.20145E-04   -0.77886E-04  4850   0.322E-01    0.480E-02
DAV:   4    -0.128196932879E+03    0.66844E-04   -0.13534E-04  4980   0.187E-01    0.147E-02
DAV:   5    -0.128196953600E+03   -0.20721E-04   -0.96603E-05  3570   0.206E-01    0.206E-02
DAV:   6    -0.128196926699E+03    0.26901E-04   -0.69309E-05  3200   0.178E-01    0.380E-03
DAV:   7    -0.128196930737E+03   -0.40385E-05   -0.45514E-05  4120   0.245E-02
  25 F= -.12819693E+03 E0= -.12815710E+03  d E =-.122674E-02
quench:  g(F)=  0.000E+00 g(S)=  0.000E+00 dE (1.order)= 0.000E+00
 bond charge predicted
       N       E                     dE             d eps       ncg     rms          rms(c)
DAV:   1    -0.128197408441E+03   -0.48174E-03   -0.50287E+00  4500   0.436E+00    0.107E-01
DAV:   2    -0.128199455091E+03   -0.20467E-02   -0.23589E-02  4660   0.458E-01    0.855E-02
DAV:   3    -0.128199342942E+03    0.11215E-03   -0.86429E-04  4720   0.274E-01    0.634E-02
DAV:   4    -0.128199285962E+03    0.56981E-04   -0.33486E-04  5010   0.370E-01    0.513E-02
DAV:   5    -0.128199297624E+03   -0.11662E-04   -0.53100E-04  6160   0.522E-01    0.453E-02
DAV:   6    -0.128199192466E+03    0.10516E-03   -0.35771E-04  7300   0.381E-01    0.102E-02
DAV:   7    -0.128199193034E+03   -0.56820E-06   -0.90757E-05  5440   0.719E-02
  26 F= -.12819919E+03 E0= -.12815942E+03  d E =-.226230E-02
quench:  g(F)=  0.000E+00 g(S)=  0.000E+00 dE (1.order)= 0.000E+00
 bond charge predicted
       N       E                     dE             d eps       ncg     rms          rms(c)
DAV:   1    -0.128167560503E+03    0.31632E-01   -0.62901E+01  4500   0.143E+01    0.349E-01
DAV:   2    -0.128203531732E+03   -0.35971E-01   -0.39099E-01  4710   0.178E+00    0.315E-01
DAV:   3    -0.128202311542E+03    0.12202E-02   -0.12244E-02  4760   0.101E+00    0.212E-01
DAV:   4    -0.128201610225E+03    0.70132E-03   -0.24215E-03  4860   0.865E-01    0.181E-01
DAV:   5    -0.128201933132E+03   -0.32291E-03   -0.50240E-03  6190   0.156E+00    0.153E-01
DAV:   6    -0.128200448621E+03    0.14845E-02   -0.40458E-03  7800   0.127E+00    0.259E-02
DAV:   7    -0.128200552124E+03   -0.10350E-03   -0.12289E-03  4740   0.176E-01    0.272E-02
DAV:   8    -0.128200544489E+03    0.76342E-05   -0.13796E-04  4630   0.818E-02    0.197E-02
DAV:   9    -0.128200534136E+03    0.10354E-04   -0.33967E-05  3700   0.417E-02    0.105E-02
DAV:  10    -0.128200532965E+03    0.11706E-05   -0.16820E-05  3320   0.337E-02
  27 F= -.12820053E+03 E0= -.12816102E+03  d E =-.133993E-02
quench:  g(F)=  0.000E+00 g(S)=  0.000E+00 dE (1.order)= 0.000E+00
 bond charge predicted
       N       E                     dE             d eps       ncg     rms          rms(c)
DAV:   1    -0.128202123926E+03   -0.15898E-02   -0.62971E+00  4500   0.520E+00    0.144E-01
DAV:   2    -0.128204732904E+03   -0.26090E-02   -0.30721E-02  4740   0.691E-01    0.114E-01
DAV:   3    -0.128204673499E+03    0.59405E-04   -0.22031E-03  4920   0.527E-01    0.868E-02
DAV:   4    -0.128204513033E+03    0.16047E-03   -0.48158E-04  5130   0.448E-01    0.446E-02
DAV:   5    -0.128204639722E+03   -0.12669E-03   -0.68522E-04  5910   0.615E-01    0.516E-02
DAV:   6    -0.128204461082E+03    0.17864E-03   -0.43864E-04  6830   0.464E-01    0.809E-03
DAV:   7    -0.128204465900E+03   -0.48182E-05   -0.95656E-05  5540   0.673E-02
  28 F= -.12820447E+03 E0= -.12816454E+03  d E =-.393293E-02
quench:  g(F)=  0.000E+00 g(S)=  0.000E+00 dE (1.order)= 0.000E+00
 bond charge predicted
       N       E                     dE             d eps       ncg     rms          rms(c)
DAV:   1    -0.128165760109E+03    0.38701E-01   -0.78525E+01  4500   0.158E+01    0.388E-01
DAV:   2    -0.128210536781E+03   -0.44777E-01   -0.48556E-01  4770   0.191E+00    0.349E-01
DAV:   3    -0.128208952171E+03    0.15846E-02   -0.15390E-02  4890   0.121E+00    0.238E-01
DAV:   4    -0.128208309093E+03    0.64308E-03   -0.36063E-03  5270   0.115E+00    0.207E-01
DAV:   5    -0.128207996508E+03    0.31258E-03   -0.55566E-03  6060   0.165E+00    0.164E-01
DAV:   6    -0.128206568994E+03    0.14275E-02   -0.49128E-03  7630   0.112E+00    0.269E-02
DAV:   7    -0.128206691591E+03   -0.12260E-03   -0.13898E-03  4690   0.182E-01    0.311E-02
DAV:   8    -0.128206678345E+03    0.13246E-04   -0.16109E-04  4670   0.103E-01    0.205E-02
DAV:   9    -0.128206667049E+03    0.11296E-04   -0.74233E-05  4710   0.520E-02    0.899E-03
DAV:  10    -0.128206668432E+03   -0.13832E-05   -0.11715E-05  3190   0.302E-02
  29 F= -.12820667E+03 E0= -.12816681E+03  d E =-.220253E-02
quench:  g(F)=  0.000E+00 g(S)=  0.000E+00 dE (1.order)= 0.000E+00
 bond charge predicted
       N       E                     dE             d eps       ncg     rms          rms(c)
DAV:   1    -0.128189187022E+03    0.17480E-01   -0.37014E+01  4500   0.115E+01    0.310E-01
DAV:   2    -0.128207968125E+03   -0.18781E-01   -0.21113E-01  5550   0.181E+00    0.298E-01
DAV:   3    -0.128207846903E+03    0.12122E-03   -0.18414E-02  4860   0.182E+00    0.211E-01
DAV:   4    -0.128207245238E+03    0.60167E-03   -0.44664E-03  4950   0.136E+00    0.158E-01
DAV:   5    -0.128206685692E+03    0.55955E-03   -0.26595E-03  6120   0.104E+00    0.110E-01
DAV:   6    -0.128206321702E+03    0.36399E-03   -0.26809E-03  6490   0.573E-01    0.270E-02
DAV:   7    -0.128206360983E+03   -0.39280E-04   -0.71594E-04  4700   0.199E-01    0.234E-02
DAV:   8    -0.128206358528E+03    0.24542E-05   -0.13968E-04  4780   0.982E-02    0.142E-02
DAV:   9    -0.128206352710E+03    0.58179E-05   -0.37748E-05  4110   0.545E-02
  30 F= -.12820635E+03 E0= -.12816718E+03  d E =0.315722E-03
quench:  g(F)=  0.000E+00 g(S)=  0.000E+00 dE (1.order)= 0.000E+00
 bond charge predicted
       N       E                     dE             d eps       ncg     rms          rms(c)
DAV:   1    -0.128206312996E+03    0.45533E-04   -0.51899E+00  4540   0.489E+00    0.137E-01
DAV:   2    -0.128207920228E+03   -0.16072E-02   -0.20655E-02  4720   0.609E-01    0.105E-01
DAV:   3    -0.128207879896E+03    0.40332E-04   -0.17940E-03  5000   0.603E-01    0.932E-02
DAV:   4    -0.128207786427E+03    0.93469E-04   -0.99845E-04  4970   0.708E-01    0.617E-02
DAV:   5    -0.128207670014E+03    0.11641E-03   -0.73610E-04  7020   0.632E-01    0.209E-02
DAV:   6    -0.128207627804E+03    0.42210E-04   -0.22433E-04  5660   0.249E-01    0.829E-03
DAV:   7    -0.128207632151E+03   -0.43469E-05   -0.97147E-05  5190   0.655E-02
  31 F= -.12820763E+03 E0= -.12816780E+03  d E =-.127944E-02
quench:  g(F)=  0.000E+00 g(S)=  0.000E+00 dE (1.order)= 0.000E+00
 bond charge predicted
       N       E                     dE             d eps       ncg     rms          rms(c)
DAV:   1    -0.128207931875E+03   -0.30407E-03   -0.57317E-01  4500   0.144E+00    0.375E-02
DAV:   2    -0.128208197742E+03   -0.26587E-03   -0.29945E-03  4720   0.179E-01    0.311E-02
DAV:   3    -0.128208190201E+03    0.75416E-05   -0.16840E-04  4570   0.137E-01    0.242E-02
DAV:   4    -0.128208180171E+03    0.10030E-04   -0.37099E-05  3700   0.119E-01    0.164E-02
DAV:   5    -0.128208188242E+03   -0.80712E-05   -0.64065E-05  2940   0.189E-01
  32 F= -.12820819E+03 E0= -.12816851E+03  d E =-.556091E-03
quench:  g(F)=  0.000E+00 g(S)=  0.000E+00 dE (1.order)= 0.000E+00
 bond charge predicted
       N       E                     dE             d eps       ncg     rms          rms(c)
DAV:   1    -0.128208341330E+03   -0.16116E-03   -0.21284E-01  4540   0.889E-01    0.254E-02
DAV:   2    -0.128208452344E+03   -0.11101E-03   -0.12866E-03  4840   0.133E-01    0.207E-02
DAV:   3    -0.128208453879E+03   -0.15346E-05   -0.11392E-04  4700   0.113E-01    0.152E-02
DAV:   4    -0.128208451297E+03    0.25820E-05   -0.18962E-05  2770   0.777E-02
  33 F= -.12820845E+03 E0= -.12816879E+03  d E =-.263055E-03
quench:  g(F)=  0.000E+00 g(S)=  0.000E+00 dE (1.order)= 0.000E+00
 bond charge predicted
       N       E                     dE             d eps       ncg     rms          rms(c)
DAV:   1    -0.128090290953E+03    0.11816E+00   -0.23475E+02  4500   0.318E+01    0.994E-01
DAV:   2    -0.128198589015E+03   -0.10830E+00   -0.13788E+00  5760   0.672E+00    0.101E+00
DAV:   3    -0.128193026376E+03    0.55626E-02   -0.17743E-01  4800   0.655E+00    0.560E-01
DAV:   4    -0.128188440210E+03    0.45862E-02   -0.49838E-02  4960   0.461E+00    0.482E-01
DAV:   5    -0.128180701643E+03    0.77386E-02   -0.27990E-02  5330   0.317E+00    0.274E-01
DAV:   6    -0.128180200309E+03    0.50133E-03   -0.27472E-02  5590   0.127E+00    0.135E-01
DAV:   7    -0.128180006335E+03    0.19397E-03   -0.43396E-03  4770   0.664E-01    0.698E-02
DAV:   8    -0.128180065108E+03   -0.58774E-04   -0.19403E-03  4670   0.331E-01    0.454E-02
DAV:   9    -0.128180063306E+03    0.18025E-05   -0.49966E-04  4640   0.175E-01    0.275E-02
DAV:  10    -0.128180063677E+03   -0.37124E-06   -0.99933E-05  4670   0.143E-01
  34 F= -.12818006E+03 E0= -.12813997E+03  d E =0.283876E-01
quench:  g(F)=  0.000E+00 g(S)=  0.000E+00 dE (1.order)= 0.000E+00
 bond charge predicted
       N       E                     dE             d eps       ncg     rms          rms(c)
DAV:   1    -0.128124999791E+03    0.55064E-01   -0.95710E+01  4500   0.182E+01    0.481E-01
DAV:   2    -0.128183970840E+03   -0.58971E-01   -0.63452E-01  5980   0.315E+00    0.494E-01
DAV:   3    -0.128183466245E+03    0.50460E-03   -0.46036E-02  4820   0.297E+00    0.329E-01
DAV:   4    -0.128182037985E+03    0.14283E-02   -0.10261E-02  5070   0.200E+00    0.257E-01
DAV:   5    -0.128180911213E+03    0.11268E-02   -0.64521E-03  5760   0.157E+00    0.190E-01
DAV:   6    -0.128179978445E+03    0.93277E-03   -0.69082E-03  6330   0.853E-01    0.423E-02
DAV:   7    -0.128180084174E+03   -0.10573E-03   -0.17336E-03  4740   0.259E-01    0.419E-02
DAV:   8    -0.128180071698E+03    0.12476E-04   -0.47944E-04  4700   0.212E-01    0.228E-02
DAV:   9    -0.128180058357E+03    0.13341E-04   -0.58514E-05  4230   0.578E-02    0.137E-02
DAV:  10    -0.128180053680E+03    0.46774E-05   -0.37712E-05  4170   0.769E-02
  35 F= -.12818005E+03 E0= -.12814165E+03  d E =0.999705E-05
quench:  g(F)=  0.000E+00 g(S)=  0.000E+00 dE (1.order)= 0.000E+00
 bond charge predicted
       N       E                     dE             d eps       ncg     rms          rms(c)
DAV:   1    -0.128184880049E+03   -0.48217E-02   -0.90496E+00  4500   0.577E+00    0.159E-01
DAV:   2    -0.128189980342E+03   -0.51003E-02   -0.56658E-02  4680   0.824E-01    0.129E-01
DAV:   3    -0.128189998579E+03   -0.18237E-04   -0.33659E-03  4830   0.664E-01    0.101E-01
DAV:   4    -0.128189921352E+03    0.77227E-04   -0.92655E-04  4940   0.659E-01    0.730E-02
DAV:   5    -0.128189869331E+03    0.52021E-04   -0.85358E-04  5730   0.691E-01    0.584E-02
DAV:   6    -0.128189714724E+03    0.15461E-03   -0.49141E-04  7540   0.412E-01    0.174E-02
DAV:   7    -0.128189716514E+03   -0.17904E-05   -0.13682E-04  5480   0.986E-02    0.818E-03
DAV:   8    -0.128189716697E+03   -0.18330E-06   -0.27724E-05  3330   0.275E-02
  36 F= -.12818972E+03 E0= -.12815047E+03  d E =-.966302E-02
quench:  g(F)=  0.000E+00 g(S)=  0.000E+00 dE (1.order)= 0.000E+00
 bond charge predicted
       N       E                     dE             d eps       ncg     rms          rms(c)
DAV:   1    -0.128189901581E+03   -0.18507E-03   -0.46142E-02  4720   0.409E-01    0.121E-02
DAV:   2    -0.128189927432E+03   -0.25851E-04   -0.30052E-04  5270   0.741E-02    0.101E-02
DAV:   3    -0.128189929350E+03   -0.19181E-05   -0.38661E-05  3680   0.946E-02
  37 F= -.12818993E+03 E0= -.12815074E+03  d E =-.212653E-03
quench:  g(F)=  0.000E+00 g(S)=  0.000E+00 dE (1.order)= 0.000E+00
 bond charge predicted
       N       E                     dE             d eps       ncg     rms          rms(c)
DAV:   1    -0.128192448667E+03   -0.25212E-02   -0.12916E+00  4520   0.223E+00    0.596E-02
DAV:   2    -0.128193009022E+03   -0.56035E-03   -0.63781E-03  4790   0.324E-01    0.520E-02
DAV:   3    -0.128193036065E+03   -0.27044E-04   -0.75691E-04  4700   0.396E-01    0.467E-02
DAV:   4    -0.128192989931E+03    0.46134E-04   -0.20675E-04  4790   0.304E-01    0.278E-02
DAV:   5    -0.128192971827E+03    0.18105E-04   -0.94999E-05  4640   0.196E-01    0.183E-02
DAV:   6    -0.128192962197E+03    0.96297E-05   -0.80949E-05  5270   0.122E-01
  38 F= -.12819296E+03 E0= -.12815356E+03  d E =-.303285E-02
quench:  g(F)=  0.000E+00 g(S)=  0.000E+00 dE (1.order)= 0.000E+00
 bond charge predicted
       N       E                     dE             d eps       ncg     rms          rms(c)
DAV:   1    -0.128193315686E+03   -0.34386E-03   -0.14496E+00  4680   0.231E+00    0.609E-02
DAV:   2    -0.128194079783E+03   -0.76410E-03   -0.84077E-03  4600   0.320E-01    0.507E-02
DAV:   3    -0.128194085672E+03   -0.58888E-05   -0.53142E-04  4940   0.286E-01    0.423E-02
DAV:   4    -0.128194066556E+03    0.19116E-04   -0.16910E-04  4780   0.280E-01    0.294E-02
DAV:   5    -0.128194051613E+03    0.14942E-04   -0.11465E-04  4030   0.254E-01    0.223E-02
DAV:   6    -0.128194031251E+03    0.20363E-04   -0.72121E-05  4460   0.150E-01    0.824E-03
DAV:   7    -0.128194031315E+03   -0.64043E-07   -0.29127E-05  3430   0.527E-02
  39 F= -.12819403E+03 E0= -.12815431E+03  d E =-.106912E-02
quench:  g(F)=  0.000E+00 g(S)=  0.000E+00 dE (1.order)= 0.000E+00
 bond charge predicted
       N       E                     dE             d eps       ncg     rms          rms(c)
DAV:   1    -0.128194746003E+03   -0.71475E-03   -0.10791E-01  4550   0.606E-01    0.173E-02
DAV:   2    -0.128194807129E+03   -0.61126E-04   -0.70981E-04  4650   0.889E-02    0.135E-02
DAV:   3    -0.128194807506E+03   -0.37679E-06   -0.47329E-05  3860   0.744E-02
  40 F= -.12819481E+03 E0= -.12815514E+03  d E =-.776191E-03
quench:  g(F)=  0.000E+00 g(S)=  0.000E+00 dE (1.order)= 0.000E+00
 bond charge predicted
       N       E                     dE             d eps       ncg     rms          rms(c)
DAV:   1    -0.128197569106E+03   -0.27620E-02   -0.22200E+00  4500   0.290E+00    0.813E-02
DAV:   2    -0.128198527576E+03   -0.95847E-03   -0.11787E-02  4650   0.404E-01    0.684E-02
DAV:   3    -0.128198525745E+03    0.18313E-05   -0.10354E-03  4800   0.355E-01    0.507E-02
DAV:   4    -0.128198503180E+03    0.22564E-04   -0.29321E-04  4700   0.367E-01    0.395E-02
DAV:   5    -0.128198467474E+03    0.35706E-04   -0.25582E-04  5390   0.362E-01    0.282E-02
DAV:   6    -0.128198426241E+03    0.41233E-04   -0.16709E-04  6470   0.194E-01    0.726E-03
DAV:   7    -0.128198429868E+03   -0.36271E-05   -0.52789E-05  4730   0.354E-02
  41 F= -.12819843E+03 E0= -.12815888E+03  d E =-.362236E-02
quench:  g(F)=  0.000E+00 g(S)=  0.000E+00 dE (1.order)= 0.000E+00
 bond charge predicted
       N       E                     dE             d eps       ncg     rms          rms(c)
DAV:   1    -0.128199561887E+03   -0.11356E-02   -0.39646E-01  4520   0.125E+00    0.350E-02
DAV:   2    -0.128199712086E+03   -0.15020E-03   -0.18698E-03  5090   0.177E-01    0.292E-02
DAV:   3    -0.128199722711E+03   -0.10624E-04   -0.26807E-04  4790   0.229E-01    0.262E-02
DAV:   4    -0.128199707045E+03    0.15666E-04   -0.74375E-05  4710   0.183E-01    0.157E-02
DAV:   5    -0.128199699444E+03    0.76001E-05   -0.27093E-05  3250   0.109E-01
  42 F= -.12819970E+03 E0= -.12816010E+03  d E =-.126958E-02
quench:  g(F)=  0.000E+00 g(S)=  0.000E+00 dE (1.order)= 0.000E+00
 bond charge predicted
       N       E                     dE             d eps       ncg     rms          rms(c)
DAV:   1    -0.128197496817E+03    0.22102E-02   -0.13786E+01  4500   0.670E+00    0.159E-01
DAV:   2    -0.128204587598E+03   -0.70908E-02   -0.76895E-02  4730   0.719E-01    0.131E-01
DAV:   3    -0.128204319038E+03    0.26856E-03   -0.19525E-03  4830   0.315E-01    0.971E-02
DAV:   4    -0.128204165303E+03    0.15374E-03   -0.57139E-04  5230   0.449E-01    0.838E-02
DAV:   5    -0.128204123477E+03    0.41826E-04   -0.10062E-03  6860   0.656E-01    0.642E-02
DAV:   6    -0.128203933357E+03    0.19012E-03   -0.71070E-04  7360   0.565E-01    0.172E-02
DAV:   7    -0.128203930552E+03    0.28048E-05   -0.19080E-04  6210   0.134E-01    0.106E-02
DAV:   8    -0.128203932942E+03   -0.23900E-05   -0.60168E-05  4680   0.422E-02
  43 F= -.12820393E+03 E0= -.12816424E+03  d E =-.423350E-02
quench:  g(F)=  0.000E+00 g(S)=  0.000E+00 dE (1.order)= 0.000E+00
 bond charge predicted
       N       E                     dE             d eps       ncg     rms          rms(c)
DAV:   1    -0.128202190537E+03    0.17400E-02   -0.72129E+00  4500   0.503E+00    0.122E-01
DAV:   2    -0.128205552211E+03   -0.33617E-02   -0.37924E-02  4630   0.538E-01    0.990E-02
DAV:   3    -0.128205480119E+03    0.72092E-04   -0.16510E-03  4710   0.470E-01    0.800E-02
DAV:   4    -0.128205432851E+03    0.47268E-04   -0.66958E-04  4870   0.583E-01    0.674E-02
DAV:   5    -0.128205278415E+03    0.15444E-03   -0.54890E-04  7930   0.454E-01    0.421E-02
DAV:   6    -0.128205219610E+03    0.58805E-04   -0.31450E-04  7080   0.256E-01    0.137E-02
DAV:   7    -0.128205221584E+03   -0.19734E-05   -0.88655E-05  4720   0.745E-02
  44 F= -.12820522E+03 E0= -.12816565E+03  d E =-.128864E-02
quench:  g(F)=  0.000E+00 g(S)=  0.000E+00 dE (1.order)= 0.000E+00
 bond charge predicted
       N       E                     dE             d eps       ncg     rms          rms(c)
DAV:   1    -0.128205594768E+03   -0.37516E-03   -0.11843E-01  4520   0.714E-01    0.199E-02
DAV:   2    -0.128205628831E+03   -0.34063E-04   -0.43900E-04  6070   0.128E-01    0.189E-02
DAV:   3    -0.128205630212E+03   -0.13817E-05   -0.98101E-05  4870   0.162E-01
  45 F= -.12820563E+03 E0= -.12816603E+03  d E =-.408628E-03
quench:  g(F)=  0.000E+00 g(S)=  0.000E+00 dE (1.order)= 0.000E+00
 bond charge predicted
       N       E                     dE             d eps       ncg     rms          rms(c)
DAV:   1    -0.128201992324E+03    0.36365E-02   -0.11588E+01  4500   0.655E+00    0.165E-01
DAV:   2    -0.128206762117E+03   -0.47698E-02   -0.55175E-02  4740   0.667E-01    0.133E-01
DAV:   3    -0.128206532076E+03    0.23004E-03   -0.22680E-03  4790   0.481E-01    0.100E-01
DAV:   4    -0.128206473740E+03    0.58336E-04   -0.10204E-03  4890   0.713E-01    0.882E-02
DAV:   5    -0.128206345619E+03    0.12812E-03   -0.13409E-03  7190   0.816E-01    0.657E-02
DAV:   6    -0.128206144439E+03    0.20118E-03   -0.72386E-04  7720   0.486E-01    0.188E-02
DAV:   7    -0.128206148412E+03   -0.39733E-05   -0.18503E-04  5700   0.105E-01    0.995E-03
DAV:   8    -0.128206148685E+03   -0.27277E-06   -0.36236E-05  4250   0.369E-02
  46 F= -.12820615E+03 E0= -.12816648E+03  d E =-.518473E-03
quench:  g(F)=  0.000E+00 g(S)=  0.000E+00 dE (1.order)= 0.000E+00
 bond charge predicted
       N       E                     dE             d eps       ncg     rms          rms(c)
DAV:   1    -0.128185494848E+03    0.20654E-01   -0.29848E+01  4500   0.876E+00    0.194E-01
DAV:   2    -0.128204115279E+03   -0.18620E-01   -0.19374E-01  4770   0.982E-01    0.178E-01
DAV:   3    -0.128203762148E+03    0.35313E-03   -0.45136E-03  4920   0.575E-01    0.138E-01
DAV:   4    -0.128203627578E+03    0.13457E-03   -0.91023E-04  4980   0.643E-01    0.123E-01
DAV:   5    -0.128203225126E+03    0.40245E-03   -0.10504E-03  7750   0.578E-01    0.786E-02
DAV:   6    -0.128202976742E+03    0.24838E-03   -0.10336E-03  7050   0.406E-01    0.247E-02
DAV:   7    -0.128202992628E+03   -0.15886E-04   -0.33436E-04  5020   0.144E-01    0.171E-02
DAV:   8    -0.128202991163E+03    0.14654E-05   -0.74756E-05  4660   0.718E-02
  47 F= -.12820299E+03 E0= -.12816330E+03  d E =0.315752E-02
quench:  g(F)=  0.000E+00 g(S)=  0.000E+00 dE (1.order)= 0.000E+00
 bond charge predicted
       N       E                     dE             d eps       ncg     rms          rms(c)
DAV:   1    -0.128044575448E+03    0.15842E+00   -0.19952E+02  4500   0.217E+01    0.567E-01
DAV:   2    -0.128199264631E+03   -0.15469E+00   -0.16361E+00  4740   0.290E+00    0.522E-01
DAV:   3    -0.128197012023E+03    0.22526E-02   -0.50916E-02  4750   0.106E+00    0.342E-01
DAV:   4    -0.128195458844E+03    0.15532E-02   -0.42943E-03  5160   0.480E-01    0.284E-01
DAV:   5    -0.128194157415E+03    0.13014E-02   -0.20680E-03  5360   0.838E-01    0.223E-01
DAV:   6    -0.128193238080E+03    0.91934E-03   -0.52939E-03  7170   0.135E+00    0.142E-01
DAV:   7    -0.128192330128E+03    0.90795E-03   -0.36699E-03  7060   0.985E-01    0.404E-02
DAV:   8    -0.128192431619E+03   -0.10149E-03   -0.14776E-03  5260   0.203E-01    0.338E-02
DAV:   9    -0.128192415770E+03    0.15849E-04   -0.20666E-04  4650   0.858E-02    0.212E-02
DAV:  10    -0.128192413075E+03    0.26948E-05   -0.50985E-05  4740   0.627E-02
  48 F= -.12819241E+03 E0= -.12815269E+03  d E =0.105781E-01
quench:  g(F)=  0.000E+00 g(S)=  0.000E+00 dE (1.order)= 0.000E+00
 bond charge predicted
       N       E                     dE             d eps       ncg     rms          rms(c)
DAV:   1    -0.127812108916E+03    0.38031E+00   -0.48238E+02  4500   0.346E+01    0.957E-01
DAV:   2    -0.128221800924E+03   -0.40969E+00   -0.43677E+00  4730   0.501E+00    0.825E-01
DAV:   3    -0.128218282513E+03    0.35184E-02   -0.15576E-01  4820   0.236E+00    0.523E-01
DAV:   4    -0.128216283175E+03    0.19993E-02   -0.15783E-02  4880   0.158E+00    0.461E-01
DAV:   5    -0.128213930317E+03    0.23529E-02   -0.40768E-03  5240   0.109E+00    0.399E-01
DAV:   6    -0.128209851536E+03    0.40788E-02   -0.78939E-03  6190   0.934E-01    0.238E-01
DAV:   7    -0.128208003084E+03    0.18485E-02   -0.85692E-03  6180   0.812E-01    0.629E-02
DAV:   8    -0.128208163060E+03   -0.15998E-03   -0.22820E-03  4750   0.249E-01    0.475E-02
DAV:   9    -0.128208146921E+03    0.16139E-04   -0.36386E-04  4650   0.180E-01    0.315E-02
DAV:  10    -0.128208140866E+03    0.60553E-05   -0.81784E-05  5010   0.793E-02
  49 F= -.12820814E+03 E0= -.12816846E+03  d E =-.157278E-01
quench:  g(F)=  0.000E+00 g(S)=  0.000E+00 dE (1.order)= 0.000E+00
 bond charge predicted
       N       E                     dE             d eps       ncg     rms          rms(c)
DAV:   1    -0.128102735699E+03    0.10541E+00   -0.13473E+02  4500   0.172E+01    0.444E-01
DAV:   2    -0.128204486518E+03   -0.10175E+00   -0.10700E+00  4730   0.226E+00    0.416E-01
DAV:   3    -0.128203024105E+03    0.14624E-02   -0.31737E-02  4770   0.856E-01    0.282E-01
DAV:   4    -0.128202333741E+03    0.69036E-03   -0.29054E-03  5230   0.612E-01    0.248E-01
DAV:   5    -0.128201691267E+03    0.64247E-03   -0.11239E-03  5340   0.687E-01    0.217E-01
DAV:   6    -0.128200197229E+03    0.14940E-02   -0.35416E-03  6730   0.593E-01    0.100E-01
DAV:   7    -0.128199906640E+03    0.29059E-03   -0.18674E-03  6350   0.428E-01    0.370E-02
DAV:   8    -0.128199943650E+03   -0.37010E-04   -0.59725E-04  4680   0.140E-01    0.269E-02
DAV:   9    -0.128199935367E+03    0.82823E-05   -0.84216E-05  4700   0.751E-02
  50 F= -.12819994E+03 E0= -.12816020E+03  d E =0.820550E-02
quench:  g(F)=  0.000E+00 g(S)=  0.000E+00 dE (1.order)= 0.000E+00
 bond charge predicted
       N       E                     dE             d eps       ncg     rms          rms(c)
DAV:   1    -0.128198664458E+03    0.12792E-02   -0.81788E-01  4500   0.135E+00    0.338E-02
DAV:   2    -0.128199181134E+03   -0.51668E-03   -0.53253E-03  5430   0.195E-01    0.274E-02
DAV:   3    -0.128199185160E+03   -0.40256E-05   -0.19664E-04  4980   0.209E-01    0.236E-02
DAV:   4    -0.128199172753E+03    0.12407E-04   -0.44876E-05  3520   0.137E-01    0.170E-02
DAV:   5    -0.128199167258E+03    0.54950E-05   -0.17877E-05  3300   0.567E-02
  51 F= -.12819917E+03 E0= -.12815940E+03  d E =0.768109E-03
quench:  g(F)=  0.000E+00 g(S)=  0.000E+00 dE (1.order)= 0.000E+00
 bond charge predicted
       N       E                     dE             d eps       ncg     rms          rms(c)
DAV:   1    -0.128194188670E+03    0.49841E-02   -0.52677E+00  4500   0.353E+00    0.762E-02
DAV:   2    -0.128197455532E+03   -0.32669E-02   -0.33567E-02  4610   0.433E-01    0.730E-02
DAV:   3    -0.128197405341E+03    0.50190E-04   -0.84364E-04  4890   0.217E-01    0.554E-02
DAV:   4    -0.128197371535E+03    0.33806E-04   -0.88079E-05  4960   0.138E-01    0.479E-02
DAV:   5    -0.128197344017E+03    0.27519E-04   -0.18943E-04  5800   0.262E-01    0.368E-02
DAV:   6    -0.128197283308E+03    0.60709E-04   -0.20253E-04  6030   0.278E-01    0.973E-03
DAV:   7    -0.128197286088E+03   -0.27803E-05   -0.79430E-05  5090   0.689E-02
  52 F= -.12819729E+03 E0= -.12815746E+03  d E =0.188117E-02
quench:  g(F)=  0.000E+00 g(S)=  0.000E+00 dE (1.order)= 0.000E+00
 bond charge predicted
       N       E                     dE             d eps       ncg     rms          rms(c)
DAV:   1    -0.128179823964E+03    0.17459E-01   -0.22081E+01  4500   0.686E+00    0.152E-01
DAV:   2    -0.128194391820E+03   -0.14568E-01   -0.14988E-01  4730   0.810E-01    0.143E-01
DAV:   3    -0.128194177454E+03    0.21437E-03   -0.32211E-03  4580   0.308E-01    0.107E-01
DAV:   4    -0.128194061819E+03    0.11563E-03   -0.30988E-04  4670   0.240E-01    0.943E-02
DAV:   5    -0.128193935876E+03    0.12594E-03   -0.30709E-04  5580   0.361E-01    0.754E-02
DAV:   6    -0.128193730780E+03    0.20510E-03   -0.59055E-04  7300   0.347E-01    0.295E-02
DAV:   7    -0.128193715613E+03    0.15168E-04   -0.30745E-04  6140   0.148E-01    0.140E-02
DAV:   8    -0.128193717652E+03   -0.20399E-05   -0.64029E-05  4680   0.445E-02
  53 F= -.12819372E+03 E0= -.12815383E+03  d E =0.356844E-02
quench:  g(F)=  0.000E+00 g(S)=  0.000E+00 dE (1.order)= 0.000E+00
 bond charge predicted
       N       E                     dE             d eps       ncg     rms          rms(c)
DAV:   1    -0.127837884643E+03    0.35583E+00   -0.43089E+02  4500   0.330E+01    0.883E-01
DAV:   2    -0.128207848022E+03   -0.36996E+00   -0.39255E+00  4740   0.468E+00    0.787E-01
DAV:   3    -0.128203949824E+03    0.38982E-02   -0.12746E-01  4720   0.225E+00    0.507E-01
DAV:   4    -0.128202095981E+03    0.18538E-02   -0.14745E-02  4890   0.168E+00    0.446E-01
DAV:   5    -0.128199418227E+03    0.26778E-02   -0.46610E-03  5280   0.122E+00    0.371E-01
DAV:   6    -0.128195804164E+03    0.36141E-02   -0.90870E-03  6060   0.997E-01    0.198E-01
DAV:   7    -0.128194692624E+03    0.11115E-02   -0.69837E-03  6190   0.774E-01    0.555E-02
DAV:   8    -0.128194832943E+03   -0.14032E-03   -0.19071E-03  4640   0.225E-01    0.494E-02
DAV:   9    -0.128194795294E+03    0.37649E-04   -0.40127E-04  4710   0.197E-01    0.306E-02
DAV:  10    -0.128194783502E+03    0.11792E-04   -0.66671E-05  4740   0.711E-02    0.179E-02
DAV:  11    -0.128194787790E+03   -0.42886E-05   -0.59505E-05  4800   0.781E-02
  54 F= -.12819479E+03 E0= -.12815546E+03  d E =-.107014E-02
quench:  g(F)=  0.000E+00 g(S)=  0.000E+00 dE (1.order)= 0.000E+00
 bond charge predicted
       N       E                     dE             d eps       ncg     rms          rms(c)
DAV:   1    -0.127913888524E+03    0.28089E+00   -0.33338E+02  4500   0.289E+01    0.829E-01
DAV:   2    -0.128198809176E+03   -0.28492E+00   -0.30605E+00  4720   0.430E+00    0.703E-01
DAV:   3    -0.128196831323E+03    0.19779E-02   -0.11320E-01  4840   0.199E+00    0.445E-01
DAV:   4    -0.128195445786E+03    0.13855E-02   -0.12667E-02  4910   0.161E+00    0.392E-01
DAV:   5    -0.128193303354E+03    0.21424E-02   -0.42418E-03  5390   0.124E+00    0.319E-01
DAV:   6    -0.128190704964E+03    0.25984E-02   -0.78474E-03  6260   0.974E-01    0.162E-01
DAV:   7    -0.128190041573E+03    0.66339E-03   -0.49944E-03  6280   0.762E-01    0.556E-02
DAV:   8    -0.128190114483E+03   -0.72910E-04   -0.14087E-03  4690   0.199E-01    0.446E-02
DAV:   9    -0.128190068082E+03    0.46401E-04   -0.22020E-04  4600   0.161E-01    0.277E-02
DAV:  10    -0.128190060371E+03    0.77110E-05   -0.79440E-05  5100   0.641E-02
  55 F= -.12819006E+03 E0= -.12814999E+03  d E =0.472742E-02
quench:  g(F)=  0.000E+00 g(S)=  0.000E+00 dE (1.order)= 0.000E+00
 bond charge predicted
       N       E                     dE             d eps       ncg     rms          rms(c)
DAV:   1    -0.128191960855E+03   -0.18928E-02   -0.21621E+00  4500   0.267E+00    0.727E-02
DAV:   2    -0.128193206592E+03   -0.12457E-02   -0.13626E-02  4790   0.424E-01    0.653E-02
DAV:   3    -0.128193207804E+03   -0.12121E-05   -0.95009E-04  4890   0.333E-01    0.450E-02
DAV:   4    -0.128193187330E+03    0.20474E-04   -0.17072E-04  4910   0.246E-01    0.336E-02
DAV:   5    -0.128193193677E+03   -0.63467E-05   -0.18306E-04  5230   0.308E-01    0.307E-02
DAV:   6    -0.128193150718E+03    0.42959E-04   -0.13489E-04  5320   0.198E-01    0.810E-03
DAV:   7    -0.128193152938E+03   -0.22200E-05   -0.42618E-05  4550   0.437E-02
  56 F= -.12819315E+03 E0= -.12815325E+03  d E =-.309257E-02
quench:  g(F)=  0.000E+00 g(S)=  0.000E+00 dE (1.order)= 0.000E+00
 bond charge predicted
       N       E                     dE             d eps       ncg     rms          rms(c)
DAV:   1    -0.128173303787E+03    0.19847E-01   -0.28131E+01  4500   0.872E+00    0.211E-01
DAV:   2    -0.128191209566E+03   -0.17906E-01   -0.18739E-01  4960   0.128E+00    0.208E-01
DAV:   3    -0.128190911321E+03    0.29825E-03   -0.73947E-03  4670   0.825E-01    0.139E-01
DAV:   4    -0.128190683727E+03    0.22759E-03   -0.93109E-04  4830   0.414E-01    0.115E-01
DAV:   5    -0.128190831610E+03   -0.14788E-03   -0.16118E-03  5730   0.880E-01    0.110E-01
DAV:   6    -0.128190225413E+03    0.60620E-03   -0.16117E-03  7620   0.775E-01    0.220E-02
DAV:   7    -0.128190256546E+03   -0.31134E-04   -0.46708E-04  5340   0.142E-01    0.174E-02
DAV:   8    -0.128190253587E+03    0.29594E-05   -0.99351E-05  4730   0.883E-02
  57 F= -.12819025E+03 E0= -.12815058E+03  d E =0.289935E-02
quench:  g(F)=  0.000E+00 g(S)=  0.000E+00 dE (1.order)= 0.000E+00
 bond charge predicted
       N       E                     dE             d eps       ncg     rms          rms(c)
DAV:   1    -0.128185336631E+03    0.49199E-02   -0.52242E+00  4500   0.369E+00    0.851E-02
DAV:   2    -0.128188406237E+03   -0.30696E-02   -0.32087E-02  4790   0.439E-01    0.724E-02
DAV:   3    -0.128188369368E+03    0.36869E-04   -0.99252E-04  4900   0.263E-01    0.550E-02
DAV:   4    -0.128188336561E+03    0.32806E-04   -0.12202E-04  4720   0.196E-01    0.455E-02
DAV:   5    -0.128188333421E+03    0.31402E-05   -0.19562E-04  5630   0.304E-01    0.395E-02
DAV:   6    -0.128188256714E+03    0.76707E-04   -0.22796E-04  6500   0.250E-01    0.943E-03
DAV:   7    -0.128188263205E+03   -0.64917E-05   -0.75211E-05  4770   0.481E-02
  58 F= -.12818826E+03 E0= -.12814857E+03  d E =0.199038E-02
quench:  g(F)=  0.000E+00 g(S)=  0.000E+00 dE (1.order)= 0.000E+00
 bond charge predicted
       N       E                     dE             d eps       ncg     rms          rms(c)
DAV:   1    -0.127921623154E+03    0.26663E+00   -0.17280E+02  4500   0.264E+01    0.885E-01
DAV:   2    -0.128037968142E+03   -0.11634E+00   -0.13910E+00  4710   0.489E+00    0.733E-01
DAV:   3    -0.128038198229E+03   -0.23009E-03   -0.12314E-01  4910   0.418E+00    0.438E-01
DAV:   4    -0.128038532889E+03   -0.33466E-03   -0.32528E-02  4890   0.358E+00    0.372E-01
DAV:   5    -0.128035474186E+03    0.30587E-02   -0.20794E-02  5010   0.316E+00    0.262E-01
DAV:   6    -0.128033239284E+03    0.22349E-02   -0.95045E-03  6820   0.137E+00    0.517E-02
DAV:   7    -0.128033557313E+03   -0.31803E-03   -0.39871E-03  4700   0.391E-01    0.611E-02
DAV:   8    -0.128033547543E+03    0.97704E-05   -0.80332E-04  4820   0.274E-01    0.388E-02
DAV:   9    -0.128033512760E+03    0.34782E-04   -0.12918E-04  4740   0.126E-01    0.151E-02
DAV:  10    -0.128033518848E+03   -0.60874E-05   -0.85789E-05  4710   0.676E-02
  59 F= -.12803352E+03 E0= -.12799173E+03  d E =0.154744E+00
quench:  g(F)=  0.000E+00 g(S)=  0.000E+00 dE (1.order)= 0.000E+00
 bond charge predicted
       N       E                     dE             d eps       ncg     rms          rms(c)
DAV:   1    -0.128119897385E+03   -0.86385E-01   -0.82313E+01  4500   0.174E+01    0.583E-01
DAV:   2    -0.128179172149E+03   -0.59275E-01   -0.67235E-01  5070   0.473E+00    0.687E-01
DAV:   3    -0.128173975269E+03    0.51969E-02   -0.60703E-02  4660   0.323E+00    0.282E-01
DAV:   4    -0.128174231407E+03   -0.25614E-03   -0.11059E-02  5070   0.174E+00    0.258E-01
DAV:   5    -0.128173030598E+03    0.12008E-02   -0.10509E-02  4930   0.215E+00    0.184E-01
DAV:   6    -0.128171996284E+03    0.10343E-02   -0.55154E-03  6270   0.805E-01    0.406E-02
DAV:   7    -0.128172076892E+03   -0.80608E-04   -0.15398E-03  4780   0.251E-01    0.342E-02
DAV:   8    -0.128172089309E+03   -0.12417E-04   -0.53083E-04  4690   0.181E-01    0.222E-02
DAV:   9    -0.128172080894E+03    0.84155E-05   -0.13041E-04  4600   0.734E-02    0.833E-03
DAV:  10    -0.128172081328E+03   -0.43474E-06   -0.17871E-05  3370   0.466E-02
  60 F= -.12817208E+03 E0= -.12813140E+03  d E =-.138562E+00
quench:  g(F)=  0.000E+00 g(S)=  0.000E+00 dE (1.order)= 0.000E+00
 bond charge predicted
       N       E                     dE             d eps       ncg     rms          rms(c)
DAV:   1    -0.128181193260E+03   -0.91124E-02   -0.11665E+01  4500   0.688E+00    0.222E-01
DAV:   2    -0.128187605177E+03   -0.64119E-02   -0.76452E-02  4690   0.140E+00    0.210E-01
DAV:   3    -0.128187576018E+03    0.29159E-04   -0.93872E-03  4790   0.112E+00    0.117E-01
DAV:   4    -0.128187508093E+03    0.67925E-04   -0.14427E-03  4870   0.677E-01    0.810E-02
DAV:   5    -0.128187536850E+03   -0.28757E-04   -0.16851E-03  4890   0.927E-01    0.749E-02
DAV:   6    -0.128187269842E+03    0.26701E-03   -0.65473E-04  6280   0.486E-01    0.104E-02
DAV:   7    -0.128187292860E+03   -0.23018E-04   -0.27757E-04  4840   0.790E-02    0.110E-02
DAV:   8    -0.128187293386E+03   -0.52626E-06   -0.33208E-05  4110   0.412E-02
  61 F= -.12818729E+03 E0= -.12814724E+03  d E =-.152121E-01
quench:  g(F)=  0.000E+00 g(S)=  0.000E+00 dE (1.order)= 0.000E+00
 bond charge predicted
       N       E                     dE             d eps       ncg     rms          rms(c)
DAV:   1    -0.128186350688E+03    0.94217E-03   -0.17819E+00  4500   0.284E+00    0.872E-02
DAV:   2    -0.128187151382E+03   -0.80069E-03   -0.96812E-03  4730   0.444E-01    0.692E-02
DAV:   3    -0.128187169283E+03   -0.17901E-04   -0.10849E-03  4910   0.383E-01    0.540E-02
DAV:   4    -0.128187124596E+03    0.44688E-04   -0.19528E-04  4960   0.287E-01    0.251E-02
DAV:   5    -0.128187150300E+03   -0.25704E-04   -0.24816E-04  4820   0.372E-01    0.289E-02
DAV:   6    -0.128187097353E+03    0.52947E-04   -0.97801E-05  3220   0.231E-01    0.295E-03
DAV:   7    -0.128187101804E+03   -0.44511E-05   -0.49685E-05  4620   0.248E-02
  62 F= -.12818710E+03 E0= -.12814730E+03  d E =0.191582E-03
quench:  g(F)=  0.000E+00 g(S)=  0.000E+00 dE (1.order)= 0.000E+00
 bond charge predicted
       N       E                     dE             d eps       ncg     rms          rms(c)
DAV:   1    -0.128188112831E+03   -0.10155E-02   -0.41897E-01  4540   0.131E+00    0.398E-02
DAV:   2    -0.128188302294E+03   -0.18946E-03   -0.23492E-03  4540   0.211E-01    0.331E-02
DAV:   3    -0.128188308789E+03   -0.64953E-05   -0.28738E-04  4850   0.171E-01    0.226E-02
DAV:   4    -0.128188298537E+03    0.10252E-04   -0.39201E-05  4560   0.973E-02    0.119E-02
DAV:   5    -0.128188300613E+03   -0.20763E-05   -0.19263E-05  2970   0.891E-02
  63 F= -.12818830E+03 E0= -.12814840E+03  d E =-.119881E-02
quench:  g(F)=  0.000E+00 g(S)=  0.000E+00 dE (1.order)= 0.000E+00
 bond charge predicted
       N       E                     dE             d eps       ncg     rms          rms(c)
DAV:   1    -0.128188382199E+03   -0.83662E-04   -0.18170E+00  4500   0.247E+00    0.631E-02
DAV:   2    -0.128189324356E+03   -0.94216E-03   -0.10353E-02  4680   0.326E-01    0.511E-02
DAV:   3    -0.128189322383E+03    0.19730E-05   -0.54640E-04  4640   0.283E-01    0.406E-02
DAV:   4    -0.128189305243E+03    0.17139E-04   -0.17407E-04  4720   0.278E-01    0.318E-02
DAV:   5    -0.128189283958E+03    0.21285E-04   -0.11356E-04  4540   0.233E-01    0.233E-02
DAV:   6    -0.128189266660E+03    0.17299E-04   -0.10133E-04  5900   0.128E-01    0.712E-03
DAV:   7    -0.128189267636E+03   -0.97638E-06   -0.25759E-05  3270   0.387E-02
  64 F= -.12818927E+03 E0= -.12814929E+03  d E =-.967023E-03
quench:  g(F)=  0.000E+00 g(S)=  0.000E+00 dE (1.order)= 0.000E+00
 bond charge predicted
       N       E                     dE             d eps       ncg     rms          rms(c)
DAV:   1    -0.128188455940E+03    0.81072E-03   -0.34510E+00  4500   0.299E+00    0.659E-02
DAV:   2    -0.128190492288E+03   -0.20363E-02   -0.21133E-02  4920   0.363E-01    0.601E-02
DAV:   3    -0.128190463227E+03    0.29062E-04   -0.62767E-04  4870   0.232E-01    0.460E-02
DAV:   4    -0.128190443016E+03    0.20211E-04   -0.98609E-05  4920   0.177E-01    0.393E-02
DAV:   5    -0.128190425605E+03    0.17411E-04   -0.98760E-05  4430   0.214E-01    0.327E-02
DAV:   6    -0.128190381977E+03    0.43628E-04   -0.17482E-04  5880   0.160E-01    0.754E-03
DAV:   7    -0.128190385956E+03   -0.39793E-05   -0.45468E-05  4530   0.437E-02
  65 F= -.12819039E+03 E0= -.12815047E+03  d E =-.111832E-02
quench:  g(F)=  0.000E+00 g(S)=  0.000E+00 dE (1.order)= 0.000E+00
 bond charge predicted
       N       E                     dE             d eps       ncg     rms          rms(c)
DAV:   1    -0.128187950737E+03    0.24312E-02   -0.63441E+00  4500   0.401E+00    0.880E-02
DAV:   2    -0.128191787786E+03   -0.38370E-02   -0.39751E-02  4820   0.475E-01    0.795E-02
DAV:   3    -0.128191723396E+03    0.64390E-04   -0.98529E-04  4870   0.253E-01    0.602E-02
DAV:   4    -0.128191686858E+03    0.36538E-04   -0.14123E-04  4920   0.210E-01    0.526E-02
DAV:   5    -0.128191661652E+03    0.25206E-04   -0.21442E-04  5800   0.314E-01    0.424E-02
DAV:   6    -0.128191577164E+03    0.84488E-04   -0.28487E-04  6550   0.248E-01    0.900E-03
DAV:   7    -0.128191584374E+03   -0.72102E-05   -0.80142E-05  4780   0.552E-02
  66 F= -.12819158E+03 E0= -.12815164E+03  d E =-.119842E-02
quench:  g(F)=  0.000E+00 g(S)=  0.000E+00 dE (1.order)= 0.000E+00
 bond charge predicted
       N       E                     dE             d eps       ncg     rms          rms(c)
DAV:   1    -0.128101629884E+03    0.89947E-01   -0.69457E+01  4500   0.170E+01    0.589E-01
DAV:   2    -0.128141434470E+03   -0.39805E-01   -0.47799E-01  5170   0.449E+00    0.660E-01
DAV:   3    -0.128136967307E+03    0.44672E-02   -0.60730E-02  4800   0.332E+00    0.276E-01
DAV:   4    -0.128138430328E+03   -0.14630E-02   -0.13610E-02  5030   0.229E+00    0.267E-01
DAV:   5    -0.128135558616E+03    0.28717E-02   -0.11930E-02  5040   0.237E+00    0.134E-01
DAV:   6    -0.128135241665E+03    0.31695E-03   -0.48402E-03  5800   0.659E-01    0.393E-02
DAV:   7    -0.128135329451E+03   -0.87786E-04   -0.14923E-03  4690   0.250E-01    0.304E-02
DAV:   8    -0.128135337806E+03   -0.83549E-05   -0.38138E-04  4770   0.139E-01    0.193E-02
DAV:   9    -0.128135326853E+03    0.10954E-04   -0.74299E-05  4560   0.481E-02    0.704E-03
DAV:  10    -0.128135325990E+03    0.86289E-06   -0.53962E-06  2840   0.367E-02
  67 F= -.12813533E+03 E0= -.12809690E+03  d E =0.562584E-01
quench:  g(F)=  0.000E+00 g(S)=  0.000E+00 dE (1.order)= 0.000E+00
 bond charge predicted
       N       E                     dE             d eps       ncg     rms          rms(c)
DAV:   1    -0.127716925361E+03    0.41840E+00   -0.48718E+02  4500   0.416E+01    0.137E+00
DAV:   2    -0.128133263299E+03   -0.41634E+00   -0.47250E+00  4850   0.799E+00    0.121E+00
DAV:   3    -0.128127661533E+03    0.56018E-02   -0.30895E-01  4910   0.605E+00    0.651E-01
DAV:   4    -0.128125783027E+03    0.18785E-02   -0.59148E-02  5000   0.412E+00    0.565E-01
DAV:   5    -0.128122237495E+03    0.35455E-02   -0.33989E-02  5080   0.387E+00    0.441E-01
DAV:   6    -0.128115906401E+03    0.63311E-02   -0.26974E-02  6750   0.209E+00    0.971E-02
DAV:   7    -0.128116636085E+03   -0.72968E-03   -0.97208E-03  4690   0.680E-01    0.992E-02
DAV:   8    -0.128116531339E+03    0.10475E-03   -0.20728E-03  4760   0.513E-01    0.614E-02
DAV:   9    -0.128116452294E+03    0.79045E-04   -0.39333E-04  4990   0.225E-01    0.276E-02
DAV:  10    -0.128116456575E+03   -0.42807E-05   -0.33359E-04  4740   0.145E-01    0.166E-02
DAV:  11    -0.128116460036E+03   -0.34610E-05   -0.68482E-05  4720   0.582E-02
  68 F= -.12811646E+03 E0= -.12807426E+03  d E =0.188660E-01
quench:  g(F)=  0.000E+00 g(S)=  0.000E+00 dE (1.order)= 0.000E+00
 bond charge predicted
       N       E                     dE             d eps       ncg     rms          rms(c)
DAV:   1    -0.128090677121E+03    0.25779E-01   -0.14204E+02  4500   0.221E+01    0.632E-01
DAV:   2    -0.128191148644E+03   -0.10047E+00   -0.10856E+00  5530   0.465E+00    0.706E-01
DAV:   3    -0.128187652768E+03    0.34959E-02   -0.76918E-02  4830   0.352E+00    0.372E-01
DAV:   4    -0.128187069788E+03    0.58298E-03   -0.15202E-02  5070   0.223E+00    0.326E-01
DAV:   5    -0.128185508174E+03    0.15616E-02   -0.11868E-02  5120   0.229E+00    0.248E-01
DAV:   6    -0.128183662633E+03    0.18455E-02   -0.10039E-02  6400   0.102E+00    0.484E-02
DAV:   7    -0.128183864306E+03   -0.20167E-03   -0.28964E-03  4690   0.318E-01    0.532E-02
DAV:   8    -0.128183840858E+03    0.23448E-04   -0.57144E-04  4720   0.234E-01    0.262E-02
DAV:   9    -0.128183822147E+03    0.18710E-04   -0.10053E-04  4890   0.837E-02    0.883E-03
DAV:  10    -0.128183822944E+03   -0.79694E-06   -0.29804E-05  3480   0.415E-02
  69 F= -.12818382E+03 E0= -.12814379E+03  d E =-.673629E-01
quench:  g(F)=  0.000E+00 g(S)=  0.000E+00 dE (1.order)= 0.000E+00
 bond charge predicted
       N       E                     dE             d eps       ncg     rms          rms(c)
DAV:   1    -0.128185077784E+03   -0.12556E-02   -0.11362E+00  4520   0.192E+00    0.497E-02
DAV:   2    -0.128185670206E+03   -0.59242E-03   -0.65615E-03  5030   0.271E-01    0.435E-02
DAV:   3    -0.128185671877E+03   -0.16707E-05   -0.44968E-04  4840   0.236E-01    0.320E-02
DAV:   4    -0.128185662223E+03    0.96541E-05   -0.10646E-04  4890   0.201E-01    0.249E-02
DAV:   5    -0.128185652603E+03    0.96194E-05   -0.67811E-05  3860   0.184E-01
  70 F= -.12818565E+03 E0= -.12814567E+03  d E =-.182966E-02
quench:  g(F)=  0.000E+00 g(S)=  0.000E+00 dE (1.order)= 0.000E+00
 bond charge predicted
       N       E                     dE             d eps       ncg     rms          rms(c)
DAV:   1    -0.128184148801E+03    0.15134E-02   -0.74248E+00  4500   0.515E+00    0.138E-01
DAV:   2    -0.128187748559E+03   -0.35998E-02   -0.41154E-02  4690   0.685E-01    0.113E-01
DAV:   3    -0.128187699160E+03    0.49399E-04   -0.27086E-03  4570   0.504E-01    0.803E-02
DAV:   4    -0.128187578964E+03    0.12020E-03   -0.40469E-04  4970   0.305E-01    0.537E-02
DAV:   5    -0.128187621130E+03   -0.42165E-04   -0.54396E-04  7210   0.451E-01    0.497E-02
DAV:   6    -0.128187501953E+03    0.11918E-03   -0.41734E-04  6500   0.448E-01    0.108E-02
DAV:   7    -0.128187500577E+03    0.13765E-05   -0.85063E-05  5220   0.998E-02
  71 F= -.12818750E+03 E0= -.12814763E+03  d E =-.184797E-02
quench:  g(F)=  0.000E+00 g(S)=  0.000E+00 dE (1.order)= 0.000E+00
 bond charge predicted
       N       E                     dE             d eps       ncg     rms          rms(c)
DAV:   1    -0.128184425616E+03    0.30763E-02   -0.44893E+00  4500   0.425E+00    0.114E-01
DAV:   2    -0.128186174195E+03   -0.17486E-02   -0.20912E-02  4870   0.629E-01    0.104E-01
DAV:   3    -0.128186141733E+03    0.32463E-04   -0.22121E-03  4770   0.537E-01    0.692E-02
DAV:   4    -0.128186083843E+03    0.57890E-04   -0.48987E-04  5070   0.423E-01    0.505E-02
DAV:   5    -0.128186075787E+03    0.80564E-05   -0.53807E-04  5240   0.532E-01    0.417E-02
DAV:   6    -0.128185994390E+03    0.81397E-04   -0.36038E-04  7800   0.305E-01    0.103E-02
DAV:   7    -0.128185998834E+03   -0.44439E-05   -0.97551E-05  4710   0.612E-02
  72 F= -.12818600E+03 E0= -.12814622E+03  d E =0.150174E-02
quench:  g(F)=  0.000E+00 g(S)=  0.000E+00 dE (1.order)= 0.000E+00
 bond charge predicted
       N       E                     dE             d eps       ncg     rms          rms(c)
DAV:   1    -0.127467043036E+03    0.71895E+00   -0.64370E+02  4500   0.481E+01    0.154E+00
DAV:   2    -0.128074745905E+03   -0.60770E+00   -0.66320E+00  5170   0.140E+01    0.194E+00
DAV:   3    -0.128024293110E+03    0.50453E-01   -0.47931E-01  4940   0.892E+00    0.754E-01
DAV:   4    -0.128023313567E+03    0.97954E-03   -0.77332E-02  5350   0.369E+00    0.695E-01
DAV:   5    -0.128017871344E+03    0.54422E-02   -0.50078E-02  4850   0.431E+00    0.524E-01
DAV:   6    -0.128009426954E+03    0.84444E-02   -0.40325E-02  6040   0.167E+00    0.138E-01
DAV:   7    -0.128009968100E+03   -0.54115E-03   -0.96812E-03  4800   0.878E-01    0.117E-01
DAV:   8    -0.128009972258E+03   -0.41584E-05   -0.37463E-03  4740   0.678E-01    0.648E-02
DAV:   9    -0.128009934093E+03    0.38165E-04   -0.69852E-04  4870   0.208E-01    0.262E-02
DAV:  10    -0.128009955161E+03   -0.21068E-04   -0.29212E-04  4630   0.127E-01    0.187E-02
DAV:  11    -0.128009961184E+03   -0.60229E-05   -0.89311E-05  4620   0.989E-02
  73 F= -.12800996E+03 E0= -.12797056E+03  d E =0.176038E+00
quench:  g(F)=  0.000E+00 g(S)=  0.000E+00 dE (1.order)= 0.000E+00
 bond charge predicted
       N       E                     dE             d eps       ncg     rms          rms(c)
DAV:   1    -0.128083668009E+03   -0.73713E-01   -0.81965E+01  4500   0.168E+01    0.530E-01
DAV:   2    -0.128132326081E+03   -0.48658E-01   -0.57391E-01  4680   0.267E+00    0.415E-01
DAV:   3    -0.128132373977E+03   -0.47896E-04   -0.38617E-02  4730   0.221E+00    0.268E-01
DAV:   4    -0.128132250672E+03    0.12330E-03   -0.10355E-02  4920   0.203E+00    0.228E-01
DAV:   5    -0.128131306750E+03    0.94392E-03   -0.64200E-03  5080   0.180E+00    0.168E-01
DAV:   6    -0.128130363807E+03    0.94294E-03   -0.39741E-03  6840   0.901E-01    0.303E-02
DAV:   7    -0.128130470960E+03   -0.10715E-03   -0.14297E-03  4610   0.234E-01    0.330E-02
DAV:   8    -0.128130459048E+03    0.11911E-04   -0.19675E-04  4780   0.134E-01    0.201E-02
DAV:   9    -0.128130446879E+03    0.12169E-04   -0.56746E-05  4830   0.736E-02    0.914E-03
DAV:  10    -0.128130447229E+03   -0.35017E-06   -0.30088E-05  3390   0.447E-02
  74 F= -.12813045E+03 E0= -.12808987E+03  d E =-.120486E+00
quench:  g(F)=  0.000E+00 g(S)=  0.000E+00 dE (1.order)= 0.000E+00
 bond charge predicted
       N       E                     dE             d eps       ncg     rms          rms(c)
DAV:   1    -0.128152789716E+03   -0.22343E-01   -0.34652E+01  4500   0.111E+01    0.331E-01
DAV:   2    -0.128171493219E+03   -0.18704E-01   -0.22110E-01  4680   0.154E+00    0.236E-01
DAV:   3    -0.128171764406E+03   -0.27119E-03   -0.13895E-02  4890   0.143E+00    0.183E-01
DAV:   4    -0.128171456782E+03    0.30762E-03   -0.46310E-03  4930   0.145E+00    0.142E-01
DAV:   5    -0.128170875733E+03    0.58105E-03   -0.23552E-03  6180   0.995E-01    0.874E-02
DAV:   6    -0.128170667005E+03    0.20873E-03   -0.15705E-03  6660   0.531E-01    0.261E-02
DAV:   7    -0.128170700058E+03   -0.33053E-04   -0.51932E-04  4800   0.165E-01    0.193E-02
DAV:   8    -0.128170694994E+03    0.50642E-05   -0.83982E-05  4610   0.832E-02
  75 F= -.12817069E+03 E0= -.12812992E+03  d E =-.402478E-01
quench:  g(F)=  0.000E+00 g(S)=  0.000E+00 dE (1.order)= 0.000E+00
 bond charge predicted
       N       E                     dE             d eps       ncg     rms          rms(c)
DAV:   1    -0.128153322066E+03    0.17378E-01   -0.47099E+01  4500   0.121E+01    0.339E-01
DAV:   2    -0.128181491934E+03   -0.28170E-01   -0.31464E-01  4860   0.178E+00    0.280E-01
DAV:   3    -0.128181669518E+03   -0.17758E-03   -0.20177E-02  4760   0.163E+00    0.207E-01
DAV:   4    -0.128181150867E+03    0.51865E-03   -0.46048E-03  4730   0.130E+00    0.159E-01
DAV:   5    -0.128180614563E+03    0.53630E-03   -0.20064E-03  5680   0.887E-01    0.117E-01
DAV:   6    -0.128180227059E+03    0.38750E-03   -0.24445E-03  6330   0.534E-01    0.251E-02
DAV:   7    -0.128180276884E+03   -0.49825E-04   -0.63763E-04  4770   0.189E-01    0.223E-02
DAV:   8    -0.128180273461E+03    0.34237E-05   -0.10945E-04  4730   0.945E-02    0.148E-02
DAV:   9    -0.128180267592E+03    0.58691E-05   -0.46915E-05  4640   0.601E-02
  76 F= -.12818027E+03 E0= -.12813991E+03  d E =-.957260E-02
quench:  g(F)=  0.000E+00 g(S)=  0.000E+00 dE (1.order)= 0.000E+00
 bond charge predicted
       N       E                     dE             d eps       ncg     rms          rms(c)
DAV:   1    -0.128179075725E+03    0.11977E-02   -0.76290E+00  4500   0.471E+00    0.107E-01
DAV:   2    -0.128183530931E+03   -0.44552E-02   -0.46614E-02  4850   0.607E-01    0.999E-02
DAV:   3    -0.128183450374E+03    0.80558E-04   -0.15202E-03  4870   0.345E-01    0.722E-02
DAV:   4    -0.128183384255E+03    0.66118E-04   -0.21670E-04  5060   0.248E-01    0.602E-02
DAV:   5    -0.128183428814E+03   -0.44559E-04   -0.50099E-04  6190   0.491E-01    0.569E-02
DAV:   6    -0.128183260511E+03    0.16830E-03   -0.46710E-04  7300   0.422E-01    0.129E-02
DAV:   7    -0.128183269457E+03   -0.89459E-05   -0.12459E-04  5280   0.711E-02    0.955E-03
DAV:   8    -0.128183268055E+03    0.14020E-05   -0.18687E-05  2930   0.296E-02
  77 F= -.12818327E+03 E0= -.12814327E+03  d E =-.300046E-02
quench:  g(F)=  0.000E+00 g(S)=  0.000E+00 dE (1.order)= 0.000E+00
 bond charge predicted
       N       E                     dE             d eps       ncg     rms          rms(c)
DAV:   1    -0.128133530770E+03    0.49739E-01   -0.80793E+01  4500   0.146E+01    0.366E-01
DAV:   2    -0.128187946338E+03   -0.54416E-01   -0.57664E-01  5140   0.217E+00    0.359E-01
DAV:   3    -0.128186964112E+03    0.98223E-03   -0.23104E-02  4840   0.141E+00    0.234E-01
DAV:   4    -0.128186465035E+03    0.49908E-03   -0.31175E-03  4840   0.852E-01    0.201E-01
DAV:   5    -0.128186022060E+03    0.44297E-03   -0.20483E-03  5300   0.947E-01    0.171E-01
DAV:   6    -0.128184947913E+03    0.10741E-02   -0.35999E-03  7060   0.745E-01    0.459E-02
DAV:   7    -0.128184987006E+03   -0.39092E-04   -0.13310E-03  5840   0.283E-01    0.276E-02
DAV:   8    -0.128184986898E+03    0.10736E-06   -0.29735E-04  4690   0.144E-01    0.208E-02
DAV:   9    -0.128184981285E+03    0.56138E-05   -0.67150E-05  4760   0.710E-02
  78 F= -.12818498E+03 E0= -.12814552E+03  d E =-.171323E-02
quench:  g(F)=  0.000E+00 g(S)=  0.000E+00 dE (1.order)= 0.000E+00
 bond charge predicted
       N       E                     dE             d eps       ncg     rms          rms(c)
DAV:   1    -0.128185243206E+03   -0.25631E-03   -0.24694E+00  4500   0.315E+00    0.921E-02
DAV:   2    -0.128186321868E+03   -0.10787E-02   -0.13305E-02  4810   0.541E-01    0.853E-02
DAV:   3    -0.128186316733E+03    0.51346E-05   -0.16157E-03  4810   0.429E-01    0.518E-02
DAV:   4    -0.128186268638E+03    0.48095E-04   -0.25321E-04  4700   0.240E-01    0.332E-02
DAV:   5    -0.128186306629E+03   -0.37991E-04   -0.27080E-04  5120   0.381E-01    0.362E-02
DAV:   6    -0.128186239100E+03    0.67529E-04   -0.21616E-04  5430   0.317E-01    0.679E-03
DAV:   7    -0.128186238441E+03    0.65893E-06   -0.68451E-05  4660   0.687E-02
  79 F= -.12818624E+03 E0= -.12814660E+03  d E =-.125716E-02
quench:  g(F)=  0.000E+00 g(S)=  0.000E+00 dE (1.order)= 0.000E+00
 bond charge predicted
       N       E                     dE             d eps       ncg     rms          rms(c)
DAV:   1    -0.128181744001E+03    0.44951E-02   -0.78514E+00  4500   0.552E+00    0.140E-01
DAV:   2    -0.128185217671E+03   -0.34737E-02   -0.39557E-02  4780   0.722E-01    0.122E-01
DAV:   3    -0.128185145161E+03    0.72510E-04   -0.26872E-03  4630   0.544E-01    0.885E-02
DAV:   4    -0.128185005600E+03    0.13956E-03   -0.55003E-04  4890   0.438E-01    0.604E-02
DAV:   5    -0.128185116031E+03   -0.11043E-03   -0.88241E-04  5770   0.694E-01    0.650E-02
DAV:   6    -0.128184885161E+03    0.23087E-03   -0.69078E-04  7790   0.536E-01    0.150E-02
DAV:   7    -0.128184888167E+03   -0.30060E-05   -0.16883E-04  5760   0.921E-02    0.972E-03
DAV:   8    -0.128184888427E+03   -0.26073E-06   -0.37241E-05  4450   0.335E-02
  80 F= -.12818489E+03 E0= -.12814478E+03  d E =0.135001E-02
quench:  g(F)=  0.000E+00 g(S)=  0.000E+00 dE (1.order)= 0.000E+00
 bond charge predicted
       N       E                     dE             d eps       ncg     rms          rms(c)
DAV:   1    -0.128181280875E+03    0.36073E-02   -0.37852E+00  4500   0.362E+00    0.853E-02
DAV:   2    -0.128183052850E+03   -0.17720E-02   -0.19386E-02  4670   0.425E-01    0.736E-02
DAV:   3    -0.128183014445E+03    0.38405E-04   -0.92691E-04  4910   0.298E-01    0.547E-02
DAV:   4    -0.128182968200E+03    0.46245E-04   -0.18160E-04  5080   0.252E-01    0.414E-02
DAV:   5    -0.128183016221E+03   -0.48021E-04   -0.35547E-04  5740   0.428E-01    0.438E-02
DAV:   6    -0.128182907643E+03    0.10858E-03   -0.28242E-04  6790   0.326E-01    0.113E-02
DAV:   7    -0.128182911552E+03   -0.39096E-05   -0.73399E-05  4630   0.536E-02
  81 F= -.12818291E+03 E0= -.12814275E+03  d E =0.197688E-02
quench:  g(F)=  0.000E+00 g(S)=  0.000E+00 dE (1.order)= 0.000E+00
 bond charge predicted
       N       E                     dE             d eps       ncg     rms          rms(c)
DAV:   1    -0.128150330843E+03    0.32577E-01   -0.45927E+01  4500   0.109E+01    0.276E-01
DAV:   2    -0.128180375973E+03   -0.30045E-01   -0.31987E-01  4720   0.142E+00    0.237E-01
DAV:   3    -0.128180083761E+03    0.29221E-03   -0.11936E-02  4750   0.718E-01    0.166E-01
DAV:   4    -0.128179761833E+03    0.32193E-03   -0.11134E-03  4900   0.485E-01    0.138E-01
DAV:   5    -0.128179556268E+03    0.20556E-03   -0.12654E-03  6410   0.717E-01    0.106E-01
DAV:   6    -0.128179115008E+03    0.44126E-03   -0.16717E-03  7740   0.793E-01    0.471E-02
DAV:   7    -0.128179068280E+03    0.46728E-04   -0.80340E-04  6210   0.293E-01    0.215E-02
DAV:   8    -0.128179068903E+03   -0.62282E-06   -0.17061E-04  4720   0.539E-02    0.137E-02
DAV:   9    -0.128179065521E+03    0.33816E-05   -0.32779E-05  3520   0.460E-02
  82 F= -.12817907E+03 E0= -.12813826E+03  d E =0.384603E-02
quench:  g(F)=  0.000E+00 g(S)=  0.000E+00 dE (1.order)= 0.000E+00
 bond charge predicted
       N       E                     dE             d eps       ncg     rms          rms(c)
DAV:   1    -0.127772303462E+03    0.40677E+00   -0.48493E+02  4500   0.406E+01    0.116E+00
DAV:   2    -0.128166107911E+03   -0.39380E+00   -0.42365E+00  5630   0.865E+00    0.124E+00
DAV:   3    -0.128155757256E+03    0.10351E-01   -0.28950E-01  4890   0.702E+00    0.687E-01
DAV:   4    -0.128150228235E+03    0.55290E-02   -0.48393E-02  5000   0.395E+00    0.548E-01
DAV:   5    -0.128145627414E+03    0.46008E-02   -0.25275E-02  5160   0.285E+00    0.429E-01
DAV:   6    -0.128140530182E+03    0.50972E-02   -0.35346E-02  6030   0.164E+00    0.897E-02
DAV:   7    -0.128141163273E+03   -0.63309E-03   -0.80158E-03  4740   0.578E-01    0.882E-02
DAV:   8    -0.128141112232E+03    0.51041E-04   -0.14947E-03  4770   0.385E-01    0.517E-02
DAV:   9    -0.128141048028E+03    0.64204E-04   -0.41199E-04  4700   0.145E-01    0.181E-02
DAV:  10    -0.128141048004E+03    0.23916E-07   -0.11980E-04  5100   0.121E-01    0.130E-02
DAV:  11    -0.128141056488E+03   -0.84836E-05   -0.76466E-05  4740   0.838E-02
  83 F= -.12814106E+03 E0= -.12810436E+03  d E =0.380090E-01
quench:  g(F)=  0.000E+00 g(S)=  0.000E+00 dE (1.order)= 0.000E+00
 bond charge predicted
       N       E                     dE             d eps       ncg     rms          rms(c)
DAV:   1    -0.128095562969E+03    0.45485E-01   -0.10242E+02  4500   0.161E+01    0.422E-01
DAV:   2    -0.128169013872E+03   -0.73451E-01   -0.78143E-01  4730   0.215E+00    0.373E-01
[...]
DAV:   4    -0.128110795689E+03    0.10004E-02   -0.21691E-02  4960   0.281E+00    0.358E-01
DAV:   5    -0.128109935637E+03    0.86005E-03   -0.19351E-02  5070   0.315E+00    0.299E-01
DAV:   6    -0.128106277757E+03    0.36579E-02   -0.12530E-02  7250   0.170E+00    0.539E-02
DAV:   7    -0.128106618903E+03   -0.34115E-03   -0.43659E-03  4720   0.342E-01    0.605E-02
DAV:   8    -0.128106580089E+03    0.38815E-04   -0.65431E-04  4800   0.261E-01    0.376E-02
DAV:   9    -0.128106544230E+03    0.35859E-04   -0.11363E-04  5030   0.989E-02    0.159E-02
DAV:  10    -0.128106545602E+03   -0.13724E-05   -0.10124E-04  4660   0.688E-02    0.802E-03
DAV:  11    -0.128106546609E+03   -0.10067E-05   -0.17316E-05  3150   0.486E-02
 145 F= -.12810655E+03 E0= -.12806479E+03  d E =0.730514E-02
quench:  g(F)=  0.000E+00 g(S)=  0.000E+00 dE (1.order)= 0.000E+00
 bond charge predicted
       N       E                     dE             d eps       ncg     rms          rms(c)
DAV:   1    -0.128120080156E+03   -0.13535E-01   -0.32630E+01  4500   0.113E+01    0.335E-01
DAV:   2    -0.128137869844E+03   -0.17790E-01   -0.20380E-01  5230   0.218E+00    0.337E-01
DAV:   3    -0.128137324520E+03    0.54532E-03   -0.19424E-02  4930   0.178E+00    0.188E-01
DAV:   4    -0.128137352201E+03   -0.27681E-04   -0.46191E-03  4930   0.137E+00    0.160E-01
DAV:   5    -0.128136688569E+03    0.66363E-03   -0.40303E-03  5180   0.142E+00    0.105E-01
DAV:   6    -0.128136326018E+03    0.36255E-03   -0.21742E-03  6540   0.560E-01    0.244E-02
DAV:   7    -0.128136367719E+03   -0.41701E-04   -0.69083E-04  4810   0.141E-01    0.209E-02
DAV:   8    -0.128136364014E+03    0.37046E-05   -0.11862E-04  4680   0.881E-02    0.115E-02
DAV:   9    -0.128136358690E+03    0.53245E-05   -0.31492E-05  3750   0.307E-02
 146 F= -.12813636E+03 E0= -.12809558E+03  d E =-.298121E-01
quench:  g(F)=  0.000E+00 g(S)=  0.000E+00 dE (1.order)= 0.000E+00
 bond charge predicted
       N       E                     dE             d eps       ncg     rms          rms(c)
DAV:   1    -0.128135370081E+03    0.99393E-03   -0.14278E+00  4540   0.198E+00    0.432E-02
DAV:   2    -0.128136200169E+03   -0.83009E-03   -0.86342E-03  4750   0.231E-01    0.393E-02
DAV:   3    -0.128136185386E+03    0.14783E-04   -0.21295E-04  4880   0.118E-01    0.301E-02
DAV:   4    -0.128136177571E+03    0.78158E-05   -0.41809E-05  3580   0.135E-01
 147 F= -.12813618E+03 E0= -.12809544E+03  d E =0.181119E-03
quench:  g(F)=  0.000E+00 g(S)=  0.000E+00 dE (1.order)= 0.000E+00
 bond charge predicted
       N       E                     dE             d eps       ncg     rms          rms(c)
DAV:   1    -0.127588827940E+03    0.54736E+00   -0.62502E+02  4500   0.438E+01    0.118E+00
DAV:   2    -0.128133947244E+03   -0.54512E+00   -0.58584E+00  4920   0.700E+00    0.106E+00
DAV:   3    -0.128132165789E+03    0.17815E-02   -0.26003E-01  4910   0.551E+00    0.694E-01
DAV:   4    -0.128126138409E+03    0.60274E-02   -0.44717E-02  5050   0.376E+00    0.571E-01
DAV:   5    -0.128119773370E+03    0.63650E-02   -0.17884E-02  5310   0.214E+00    0.420E-01
DAV:   6    -0.128114882085E+03    0.48913E-02   -0.25912E-02  5890   0.158E+00    0.163E-01
DAV:   7    -0.128115006435E+03   -0.12435E-03   -0.85628E-03  4680   0.775E-01    0.674E-02
DAV:   8    -0.128114984223E+03    0.22212E-04   -0.17214E-03  4650   0.413E-01    0.522E-02
DAV:   9    -0.128114969875E+03    0.14348E-04   -0.58205E-04  4680   0.213E-01    0.325E-02
DAV:  10    -0.128114964531E+03    0.53439E-05   -0.30276E-04  4970   0.188E-01    0.183E-02
DAV:  11    -0.128114971470E+03   -0.69385E-05   -0.99981E-05  4710   0.872E-02
 148 F= -.12811497E+03 E0= -.12807474E+03  d E =0.212061E-01
quench:  g(F)=  0.000E+00 g(S)=  0.000E+00 dE (1.order)= 0.000E+00
 bond charge predicted
       N       E                     dE             d eps       ncg     rms          rms(c)
DAV:   1    -0.127549110622E+03    0.56585E+00   -0.63561E+02  4500   0.491E+01    0.142E+00
DAV:   2    -0.128065389134E+03   -0.51628E+00   -0.56639E+00  5110   0.992E+00    0.152E+00
DAV:   3    -0.128048771026E+03    0.16618E-01   -0.37305E-01  4950   0.743E+00    0.747E-01
DAV:   4    -0.128046957631E+03    0.18134E-02   -0.76217E-02  5150   0.486E+00    0.702E-01
DAV:   5    -0.128038739331E+03    0.82183E-02   -0.52416E-02  5100   0.480E+00    0.518E-01
DAV:   6    -0.128030682630E+03    0.80567E-02   -0.48841E-02  6290   0.212E+00    0.121E-01
DAV:   7    -0.128031459741E+03   -0.77711E-03   -0.12896E-02  4770   0.664E-01    0.116E-01
DAV:   8    -0.128031441215E+03    0.18526E-04   -0.32193E-03  4790   0.556E-01    0.688E-02
DAV:   9    -0.128031339705E+03    0.10151E-03   -0.54198E-04  5190   0.225E-01    0.202E-02
DAV:  10    -0.128031366458E+03   -0.26753E-04   -0.23735E-04  4710   0.694E-02    0.128E-02
DAV:  11    -0.128031376346E+03   -0.98887E-05   -0.61020E-05  4620   0.907E-02
 149 F= -.12803138E+03 E0= -.12798891E+03  d E =0.835951E-01
quench:  g(F)=  0.000E+00 g(S)=  0.000E+00 dE (1.order)= 0.000E+00
 bond charge predicted
       N       E                     dE             d eps       ncg     rms          rms(c)
DAV:   1    -0.128088005371E+03   -0.56639E-01   -0.45820E+01  4500   0.143E+01    0.422E-01
DAV:   2    -0.128105910847E+03   -0.17905E-01   -0.21883E-01  4650   0.242E+00    0.396E-01
DAV:   3    -0.128105537675E+03    0.37317E-03   -0.28945E-02  4930   0.235E+00    0.253E-01
DAV:   4    -0.128105989217E+03   -0.45154E-03   -0.10283E-02  5010   0.225E+00    0.213E-01
DAV:   5    -0.128103582880E+03    0.24063E-02   -0.72873E-03  5610   0.190E+00    0.844E-02
DAV:   6    -0.128103507972E+03    0.74907E-04   -0.31069E-03  6330   0.531E-01    0.287E-02
DAV:   7    -0.128103563285E+03   -0.55312E-04   -0.91995E-04  4860   0.160E-01    0.242E-02
DAV:   8    -0.128103558120E+03    0.51643E-05   -0.11409E-04  4720   0.862E-02    0.152E-02
DAV:   9    -0.128103550119E+03    0.80016E-05   -0.23196E-05  3410   0.416E-02
 150 F= -.12810355E+03 E0= -.12806212E+03  d E =-.721738E-01
quench:  g(F)=  0.000E+00 g(S)=  0.000E+00 dE (1.order)= 0.000E+00
 bond charge predicted
       N       E                     dE             d eps       ncg     rms          rms(c)
DAV:   1    -0.128119490930E+03   -0.15933E-01   -0.91916E+00  4500   0.660E+00    0.198E-01
DAV:   2    -0.128122729695E+03   -0.32388E-02   -0.40501E-02  4610   0.991E-01    0.166E-01
DAV:   3    -0.128122773322E+03   -0.43627E-04   -0.51562E-03  4720   0.982E-01    0.130E-01
DAV:   4    -0.128122850533E+03   -0.77210E-04   -0.20950E-03  4810   0.107E+00    0.928E-02
DAV:   5    -0.128122327037E+03    0.52350E-03   -0.13441E-03  6940   0.852E-01    0.346E-02
DAV:   6    -0.128122311322E+03    0.15715E-04   -0.30706E-04  6710   0.196E-01    0.151E-02
DAV:   7    -0.128122315835E+03   -0.45131E-05   -0.10586E-04  4660   0.558E-02    0.954E-03
DAV:   8    -0.128122315400E+03    0.43468E-06   -0.13443E-05  2720   0.305E-02
 151 F= -.12812232E+03 E0= -.12808149E+03  d E =-.187653E-01
quench:  g(F)=  0.000E+00 g(S)=  0.000E+00 dE (1.order)= 0.000E+00
 bond charge predicted
       N       E                     dE             d eps       ncg     rms          rms(c)
DAV:   1    -0.128123959002E+03   -0.16432E-02   -0.48211E+00  4500   0.433E+00    0.115E-01
DAV:   2    -0.128126418165E+03   -0.24592E-02   -0.27110E-02  4580   0.626E-01    0.102E-01
DAV:   3    -0.128126398562E+03    0.19603E-04   -0.17587E-03  4660   0.488E-01    0.716E-02
DAV:   4    -0.128126366373E+03    0.32188E-04   -0.50550E-04  5000   0.495E-01    0.555E-02
DAV:   5    -0.128126342558E+03    0.23816E-04   -0.56452E-04  5610   0.569E-01    0.452E-02
DAV:   6    -0.128126244695E+03    0.97862E-04   -0.29617E-04  7040   0.318E-01    0.104E-02
DAV:   7    -0.128126248934E+03   -0.42384E-05   -0.91060E-05  4620   0.674E-02
 152 F= -.12812625E+03 E0= -.12808570E+03  d E =-.393353E-02
quench:  g(F)=  0.000E+00 g(S)=  0.000E+00 dE (1.order)= 0.000E+00
 bond charge predicted
       N       E                     dE             d eps       ncg     rms          rms(c)
DAV:   1    -0.128102892668E+03    0.23352E-01   -0.40315E+01  4500   0.110E+01    0.276E-01
DAV:   2    -0.128127196878E+03   -0.24304E-01   -0.26055E-01  4690   0.150E+00    0.249E-01
DAV:   3    -0.128126944741E+03    0.25214E-03   -0.11881E-02  4790   0.110E+00    0.176E-01
DAV:   4    -0.128126696562E+03    0.24818E-03   -0.24011E-03  4890   0.964E-01    0.149E-01
DAV:   5    -0.128126346962E+03    0.34960E-03   -0.18564E-03  5550   0.954E-01    0.118E-01
DAV:   6    -0.128125845632E+03    0.50133E-03   -0.21979E-03  7140   0.613E-01    0.255E-02
DAV:   7    -0.128125887785E+03   -0.42153E-04   -0.58940E-04  4760   0.167E-01    0.197E-02
DAV:   8    -0.128125882582E+03    0.52037E-05   -0.10788E-04  4640   0.745E-02    0.145E-02
DAV:   9    -0.128125877218E+03    0.53636E-05   -0.28431E-05  3480   0.468E-02
 153 F= -.12812588E+03 E0= -.12808565E+03  d E =0.371716E-03
quench:  g(F)=  0.000E+00 g(S)=  0.000E+00 dE (1.order)= 0.000E+00
 bond charge predicted
       N       E                     dE             d eps       ncg     rms          rms(c)
DAV:   1    -0.128047070838E+03    0.78812E-01   -0.11695E+02  4500   0.172E+01    0.437E-01
DAV:   2    -0.128130056243E+03   -0.82985E-01   -0.87858E-01  4820   0.230E+00    0.407E-01
DAV:   3    -0.128128694491E+03    0.13618E-02   -0.30038E-02  4800   0.139E+00    0.279E-01
DAV:   4    -0.128128035647E+03    0.65884E-03   -0.40229E-03  4940   0.992E-01    0.244E-01
DAV:   5    -0.128127084033E+03    0.95161E-03   -0.21184E-03  5700   0.905E-01    0.194E-01
DAV:   6    -0.128125781587E+03    0.13024E-02   -0.42206E-03  6840   0.755E-01    0.740E-02
DAV:   7    -0.128125731330E+03    0.50257E-04   -0.18444E-03  5930   0.367E-01    0.302E-02
DAV:   8    -0.128125745759E+03   -0.14430E-04   -0.38865E-04  4690   0.127E-01    0.247E-02
DAV:   9    -0.128125737010E+03    0.87496E-05   -0.10770E-04  4780   0.993E-02    0.123E-02
DAV:  10    -0.128125737836E+03   -0.82580E-06   -0.22006E-05  3430   0.349E-02
 154 F= -.12812574E+03 E0= -.12808582E+03  d E =0.139382E-03
quench:  g(F)=  0.000E+00 g(S)=  0.000E+00 dE (1.order)= 0.000E+00
 bond charge predicted
       N       E                     dE             d eps       ncg     rms          rms(c)
DAV:   1    -0.127735456436E+03    0.39028E+00   -0.47287E+02  4500   0.365E+01    0.104E+00
DAV:   2    -0.128143320593E+03   -0.40786E+00   -0.43934E+00  4950   0.578E+00    0.917E-01
DAV:   3    -0.128139238800E+03    0.40818E-02   -0.18634E-01  4840   0.389E+00    0.580E-01
DAV:   4    -0.128136209926E+03    0.30289E-02   -0.27473E-02  5060   0.262E+00    0.497E-01
DAV:   5    -0.128132275890E+03    0.39340E-02   -0.10041E-02  5160   0.177E+00    0.391E-01
DAV:   6    -0.128127450586E+03    0.48253E-02   -0.16228E-02  6270   0.134E+00    0.167E-01
DAV:   7    -0.128127035943E+03    0.41464E-03   -0.73737E-03  5330   0.714E-01    0.573E-02
DAV:   8    -0.128127123001E+03   -0.87058E-04   -0.15253E-03  4680   0.315E-01    0.488E-02
DAV:   9    -0.128127099592E+03    0.23409E-04   -0.48623E-04  4810   0.217E-01    0.221E-02
DAV:  10    -0.128127109693E+03   -0.10101E-04   -0.10085E-04  4890   0.637E-02    0.104E-02
DAV:  11    -0.128127122074E+03   -0.12381E-04   -0.44462E-05  4210   0.781E-02    0.705E-03
DAV:  12    -0.128127126494E+03   -0.44201E-05   -0.88506E-06  2940   0.345E-02
 155 F= -.12812713E+03 E0= -.12808713E+03  d E =-.138866E-02
quench:  g(F)=  0.000E+00 g(S)=  0.000E+00 dE (1.order)= 0.000E+00
 bond charge predicted
       N       E                     dE             d eps       ncg     rms          rms(c)
DAV:   1    -0.128131865340E+03   -0.47433E-02   -0.96052E+00  4500   0.638E+00    0.186E-01
DAV:   2    -0.128135983259E+03   -0.41179E-02   -0.51233E-02  4810   0.103E+00    0.168E-01
DAV:   3    -0.128135947823E+03    0.35436E-04   -0.55639E-03  4780   0.808E-01    0.102E-01
DAV:   4    -0.128135794380E+03    0.15344E-03   -0.92958E-04  4920   0.583E-01    0.694E-02
DAV:   5    -0.128135937495E+03   -0.14311E-03   -0.14195E-03  5020   0.877E-01    0.757E-02
DAV:   6    -0.128135612861E+03    0.32463E-03   -0.73619E-04  7550   0.551E-01    0.879E-03
DAV:   7    -0.128135631475E+03   -0.18614E-04   -0.22842E-04  4830   0.659E-02    0.102E-02
DAV:   8    -0.128135632176E+03   -0.70170E-06   -0.26799E-05  3120   0.329E-02
 156 F= -.12813563E+03 E0= -.12809578E+03  d E =-.850568E-02
quench:  g(F)=  0.000E+00 g(S)=  0.000E+00 dE (1.order)= 0.000E+00
 bond charge predicted
       N       E                     dE             d eps       ncg     rms          rms(c)
DAV:   1    -0.128136333399E+03   -0.70192E-03   -0.55156E-01  4540   0.149E+00    0.414E-02
DAV:   2    -0.128136619249E+03   -0.28585E-03   -0.32110E-03  4640   0.223E-01    0.351E-02
DAV:   3    -0.128136623022E+03   -0.37735E-05   -0.25607E-04  4750   0.198E-01    0.270E-02
DAV:   4    -0.128136617773E+03    0.52492E-05   -0.79373E-05  4610   0.200E-01
 157 F= -.12813662E+03 E0= -.12809666E+03  d E =-.985597E-03
quench:  g(F)=  0.000E+00 g(S)=  0.000E+00 dE (1.order)= 0.000E+00
 bond charge predicted
       N       E                     dE             d eps       ncg     rms          rms(c)
DAV:   1    -0.128135922698E+03    0.70032E-03   -0.20974E+00  4500   0.240E+00    0.589E-02
DAV:   2    -0.128137204944E+03   -0.12822E-02   -0.12788E-02  5940   0.501E-01    0.630E-02
DAV:   3    -0.128137190903E+03    0.14041E-04   -0.12480E-03  4880   0.576E-01    0.519E-02
DAV:   4    -0.128137134021E+03    0.56882E-04   -0.23362E-04  4790   0.247E-01    0.345E-02
DAV:   5    -0.128137108803E+03    0.25218E-04   -0.23596E-04  5220   0.112E-01    0.220E-02
DAV:   6    -0.128137103678E+03    0.51252E-05   -0.90497E-05  4950   0.126E-01
 158 F= -.12813710E+03 E0= -.12809704E+03  d E =-.485905E-03
quench:  g(F)=  0.000E+00 g(S)=  0.000E+00 dE (1.order)= 0.000E+00
 bond charge predicted
       N       E                     dE             d eps       ncg     rms          rms(c)
DAV:   1    -0.128126706134E+03    0.10403E-01   -0.18811E+01  4500   0.685E+00    0.153E-01
DAV:   2    -0.128138659441E+03   -0.11953E-01   -0.12387E-01  4560   0.779E-01    0.138E-01
DAV:   3    -0.128138417686E+03    0.24175E-03   -0.26857E-03  4720   0.305E-01    0.105E-01
DAV:   4    -0.128138256783E+03    0.16090E-03   -0.30118E-04  4990   0.231E-01    0.872E-02
DAV:   5    -0.128137995710E+03    0.26107E-03   -0.57449E-04  6970   0.229E-01    0.343E-02
DAV:   6    -0.128138038116E+03   -0.42406E-04   -0.41003E-04  5750   0.444E-01    0.361E-02
DAV:   7    -0.128137958956E+03    0.79161E-04   -0.21293E-04  5890   0.297E-01    0.112E-02
DAV:   8    -0.128137964269E+03   -0.53137E-05   -0.70635E-05  4690   0.367E-02
 159 F= -.12813796E+03 E0= -.12809783E+03  d E =-.860591E-03
quench:  g(F)=  0.000E+00 g(S)=  0.000E+00 dE (1.order)= 0.000E+00
 bond charge predicted
       N       E                     dE             d eps       ncg     rms          rms(c)
DAV:   1    -0.128085480915E+03    0.52478E-01   -0.90287E+01  4500   0.165E+01    0.433E-01
DAV:   2    -0.128141671293E+03   -0.56190E-01   -0.61069E-01  4740   0.216E+00    0.381E-01
DAV:   3    -0.128140565002E+03    0.11063E-02   -0.26808E-02  4840   0.157E+00    0.265E-01
DAV:   4    -0.128139894457E+03    0.67054E-03   -0.51239E-03  5070   0.133E+00    0.225E-01
DAV:   5    -0.128138924067E+03    0.97039E-03   -0.39364E-03  5760   0.133E+00    0.166E-01
DAV:   6    -0.128137807335E+03    0.11167E-02   -0.51094E-03  7040   0.896E-01    0.353E-02
DAV:   7    -0.128137912090E+03   -0.10475E-03   -0.14018E-03  4770   0.269E-01    0.314E-02
DAV:   8    -0.128137905051E+03    0.70385E-05   -0.23905E-04  4710   0.134E-01    0.220E-02
DAV:   9    -0.128137894760E+03    0.10291E-04   -0.83664E-05  4930   0.772E-02    0.857E-03
DAV:  10    -0.128137899346E+03   -0.45865E-05   -0.28456E-05  3410   0.437E-02
 160 F= -.12813790E+03 E0= -.12809778E+03  d E =0.649230E-04
quench:  g(F)=  0.000E+00 g(S)=  0.000E+00 dE (1.order)= 0.000E+00
 bond charge predicted
       N       E                     dE             d eps       ncg     rms          rms(c)
DAV:   1    -0.128121670052E+03    0.16225E-01   -0.31395E+01  4500   0.104E+01    0.264E-01
DAV:   2    -0.128138163290E+03   -0.16493E-01   -0.18129E-01  4940   0.158E+00    0.264E-01
DAV:   3    -0.128137513745E+03    0.64954E-03   -0.10006E-02  4790   0.110E+00    0.163E-01
DAV:   4    -0.128137064860E+03    0.44889E-03   -0.16453E-03  5010   0.648E-01    0.129E-01
DAV:   5    -0.128137545633E+03   -0.48077E-03   -0.33008E-03  5660   0.133E+00    0.138E-01
DAV:   6    -0.128136465266E+03    0.10804E-02   -0.26904E-03  7880   0.990E-01    0.219E-02
DAV:   7    -0.128136530253E+03   -0.64987E-04   -0.77952E-04  4670   0.129E-01    0.220E-02
DAV:   8    -0.128136522431E+03    0.78217E-05   -0.84237E-05  4670   0.841E-02
 161 F= -.12813652E+03 E0= -.12809642E+03  d E =0.137691E-02
quench:  g(F)=  0.000E+00 g(S)=  0.000E+00 dE (1.order)= 0.000E+00
 bond charge predicted
       N       E                     dE             d eps       ncg     rms          rms(c)
DAV:   1    -0.128095853954E+03    0.40676E-01   -0.77883E+01  4500   0.153E+01    0.387E-01
DAV:   2    -0.128143388369E+03   -0.47534E-01   -0.51193E-01  4760   0.196E+00    0.353E-01
DAV:   3    -0.128142147763E+03    0.12406E-02   -0.19240E-02  4790   0.134E+00    0.243E-01
DAV:   4    -0.128141561350E+03    0.58641E-03   -0.40074E-03  5020   0.120E+00    0.212E-01
DAV:   5    -0.128140910375E+03    0.65097E-03   -0.42883E-03  5770   0.143E+00    0.164E-01
DAV:   6    -0.128139715220E+03    0.11952E-02   -0.48845E-03  7190   0.970E-01    0.304E-02
DAV:   7    -0.128139814740E+03   -0.99520E-04   -0.13058E-03  4780   0.220E-01    0.285E-02
DAV:   8    -0.128139801847E+03    0.12893E-04   -0.17905E-04  4840   0.115E-01    0.195E-02
DAV:   9    -0.128139793144E+03    0.87031E-05   -0.63861E-05  4880   0.696E-02
 162 F= -.12813979E+03 E0= -.12809953E+03  d E =-.327071E-02
quench:  g(F)=  0.000E+00 g(S)=  0.000E+00 dE (1.order)= 0.000E+00
 bond charge predicted
       N       E                     dE             d eps       ncg     rms          rms(c)
DAV:   1    -0.128131972189E+03    0.78297E-02   -0.11865E+01  4500   0.748E+00    0.210E-01
DAV:   2    -0.128134123189E+03   -0.21510E-02   -0.33756E-02  4680   0.916E-01    0.176E-01
DAV:   3    -0.128134085734E+03    0.37456E-04   -0.55227E-03  4920   0.115E+00    0.146E-01
DAV:   4    -0.128134065972E+03    0.19761E-04   -0.33287E-03  5660   0.133E+00    0.106E-01
DAV:   5    -0.128133357890E+03    0.70808E-03   -0.21009E-03  8240   0.948E-01    0.338E-02
DAV:   6    -0.128133356668E+03    0.12219E-05   -0.44941E-04  5930   0.191E-01    0.156E-02
DAV:   7    -0.128133362524E+03   -0.58558E-05   -0.12683E-04  4760   0.583E-02    0.120E-02
DAV:   8    -0.128133361265E+03    0.12589E-05   -0.13793E-05  2680   0.310E-02
 163 F= -.12813336E+03 E0= -.12809350E+03  d E =0.643188E-02
quench:  g(F)=  0.000E+00 g(S)=  0.000E+00 dE (1.order)= 0.000E+00
 bond charge predicted
       N       E                     dE             d eps       ncg     rms          rms(c)
DAV:   1    -0.128136982648E+03   -0.36201E-02   -0.32446E+00  4500   0.381E+00    0.102E-01
DAV:   2    -0.128137862097E+03   -0.87945E-03   -0.11701E-02  4570   0.453E-01    0.865E-02
DAV:   3    -0.128137806269E+03    0.55828E-04   -0.11606E-03  4800   0.413E-01    0.638E-02
DAV:   4    -0.128137715553E+03    0.90716E-04   -0.32701E-04  5250   0.378E-01    0.354E-02
DAV:   5    -0.128137745987E+03   -0.30434E-04   -0.46056E-04  6160   0.504E-01    0.327E-02
DAV:   6    -0.128137667223E+03    0.78763E-04   -0.21416E-04  5720   0.303E-01    0.540E-03
DAV:   7    -0.128137672161E+03   -0.49381E-05   -0.69834E-05  4710   0.422E-02
 164 F= -.12813767E+03 E0= -.12809766E+03  d E =-.431090E-02
quench:  g(F)=  0.000E+00 g(S)=  0.000E+00 dE (1.order)= 0.000E+00
 reached required accuracy - stopping structural energy minimisation
