 running on   40 total cores
 each image running on   10 cores
 distrk:  each k-point on   10 cores,    1 groups
 distr:  one band on    1 cores,   10 groups
 vasp.5.4.1 05Feb16 (build Nov 22 2018 20:17:51) complex                        
  
 POSCAR found type information on POSCAR  Cu Ag
 01/POSCAR found :  2 types and      37 ions
 scaLAPACK will be used

 ----------------------------------------------------------------------------- 
|                                                                             |
|           W    W    AA    RRRRR   N    N  II  N    N   GGGG   !!!           |
|           W    W   A  A   R    R  NN   N  II  NN   N  G    G  !!!           |
|           W    W  A    A  R    R  N N  N  II  N N  N  G       !!!           |
|           W WW W  AAAAAA  RRRRR   N  N N  II  N  N N  G  GGG   !            |
|           WW  WW  A    A  R   R   N   NN  II  N   NN  G    G                |
|           W    W  A    A  R    R  N    N  II  N    N   GGGG   !!!           |
|                                                                             |
|      For optimal performance we recommend to set                            |
|        NCORE= 4 - approx SQRT( number of cores)                             |
|      NCORE specifies how many cores store one orbital (NPAR=cpu/NCORE).     |
|      This setting can  greatly improve the performance of VASP for DFT.     |
|      The default, NPAR=number of cores might be grossly inefficient         |
|      on modern multi-core architectures or massively parallel machines.     |
|      Do your own testing !!!!                                               |
|      Unfortunately you need to use the default for GW and RPA calculations. |
|      (for HF NCORE is supported but not extensively tested yet)             |
|                                                                             |
 ----------------------------------------------------------------------------- 

 LDA part: xc-table for Ceperly-Alder, standard interpolation
 POSCAR found type information on POSCAR  Cu Ag
 00/POSCAR found :  2 types and      37 ions
 POSCAR found type information on POSCAR  Cu Ag
 05/POSCAR found :  2 types and      37 ions
 Jacobian:    19.6723208379109     
 POSCAR, INCAR and KPOINTS ok, starting setup
 WARNING: small aliasing (wrap around) errors must be expected
 FFT: planning ...
 WAVECAR not read
 entering main loop
       N       E                     dE             d eps       ncg     rms          rms(c)
DAV:   1     0.307059656588E+04    0.30706E+04   -0.17815E+05  4500   0.175E+03
DAV:   2     0.166004373870E+03   -0.29046E+04   -0.27605E+04  4500   0.400E+02
DAV:   3    -0.144532536082E+03   -0.31054E+03   -0.29289E+03  4660   0.165E+02
DAV:   4    -0.155864236097E+03   -0.11332E+02   -0.11202E+02  4830   0.356E+01
DAV:   5    -0.155961768092E+03   -0.97532E-01   -0.97454E-01  4910   0.276E+00    0.397E+01
DAV:   6    -0.141127658004E+03    0.14834E+02   -0.31098E+02  4890   0.928E+01    0.200E+01
DAV:   7    -0.128329812969E+03    0.12798E+02   -0.60889E+01  5050   0.481E+01    0.292E+00
DAV:   8    -0.128886329068E+03   -0.55652E+00   -0.61141E+00  5310   0.358E+01    0.464E+00
DAV:   9    -0.128317587707E+03    0.56874E+00   -0.25181E+00  5660   0.279E+01    0.251E+00
DAV:  10    -0.128234730298E+03    0.82857E-01   -0.65478E-01  6060   0.926E+00    0.180E+00
DAV:  11    -0.128200731371E+03    0.33999E-01   -0.56877E-01  4760   0.609E+00    0.813E-01
DAV:  12    -0.128201343944E+03   -0.61257E-03   -0.10805E-01  4880   0.186E+00    0.588E-01
DAV:  13    -0.128194994627E+03    0.63493E-02   -0.36861E-02  4870   0.210E+00    0.390E-01
DAV:  14    -0.128190679857E+03    0.43148E-02   -0.13122E-02  4830   0.118E+00    0.205E-01
DAV:  15    -0.128186963650E+03    0.37162E-02   -0.11493E-02  4690   0.967E-01    0.183E-01
DAV:  16    -0.128184916676E+03    0.20470E-02   -0.58797E-03  4750   0.550E-01    0.805E-02
DAV:  17    -0.128184623863E+03    0.29281E-03   -0.19127E-03  4670   0.372E-01    0.702E-02
DAV:  18    -0.128186143554E+03   -0.15197E-02   -0.14164E-03  5200   0.723E-01    0.991E-02
DAV:  19    -0.128187234978E+03   -0.10914E-02   -0.44047E-03  6610   0.139E+00    0.689E-02
DAV:  20    -0.128188792879E+03   -0.15579E-02   -0.14780E-03  4680   0.179E-01    0.781E-02
DAV:  21    -0.128188761014E+03    0.31865E-04   -0.82046E-04  5480   0.582E-01    0.338E-02
DAV:  22    -0.128189688789E+03   -0.92778E-03   -0.68266E-04  4700   0.127E-01    0.248E-02
DAV:  23    -0.128189772585E+03   -0.83796E-04   -0.65388E-05  4670   0.551E-02    0.184E-02
DAV:  24    -0.128189810897E+03   -0.38312E-04   -0.19042E-05  3230   0.644E-02    0.111E-02
DAV:  25    -0.128189844010E+03   -0.33113E-04   -0.57903E-05  2950   0.140E-01    0.794E-03
DAV:  26    -0.128189854676E+03   -0.10666E-04   -0.31533E-05  3630   0.328E-02    0.100E-02
DAV:  27    -0.128189844416E+03    0.10259E-04   -0.14459E-05  2850   0.543E-02    0.519E-03
DAV:  28    -0.128189840784E+03    0.36329E-05   -0.46039E-06  2860   0.321E-02
   1 F= -.12818984E+03 E0= -.12815042E+03  d E =-.128190E+03
quench:  g(F)=  0.000E+00 g(S)=  0.000E+00 dE (1.order)= 0.000E+00
 bond charge predicted
       N       E                     dE             d eps       ncg     rms          rms(c)
DAV:   1    -0.128190704422E+03   -0.86001E-03   -0.18955E-02  4690   0.287E-01    0.869E-03
DAV:   2    -0.128190710859E+03   -0.64376E-05   -0.79579E-05  4700   0.580E-02
   2 F= -.12819071E+03 E0= -.12815130E+03  d E =-.870076E-03
quench:  g(F)=  0.000E+00 g(S)=  0.000E+00 dE (1.order)= 0.000E+00
 bond charge predicted
       N       E                     dE             d eps       ncg     rms          rms(c)
DAV:   1    -0.128197398391E+03   -0.66940E-02   -0.20225E+00  4530   0.298E+00    0.933E-02
DAV:   2    -0.128197978318E+03   -0.57993E-03   -0.79840E-03  4740   0.485E-01    0.801E-02
DAV:   3    -0.128198007659E+03   -0.29342E-04   -0.16218E-03  4880   0.525E-01    0.621E-02
DAV:   4    -0.128197990865E+03    0.16794E-04   -0.56759E-04  4900   0.515E-01    0.509E-02
DAV:   5    -0.128197909066E+03    0.81799E-04   -0.33535E-04  5250   0.418E-01    0.148E-02
DAV:   6    -0.128197896568E+03    0.12498E-04   -0.14462E-04  6280   0.152E-01    0.593E-03
DAV:   7    -0.128197898871E+03   -0.23031E-05   -0.55611E-05  4720   0.613E-02
   3 F= -.12819790E+03 E0= -.12815852E+03  d E =-.718801E-02
quench:  g(F)=  0.000E+00 g(S)=  0.000E+00 dE (1.order)= 0.000E+00
 bond charge predicted
       N       E                     dE             d eps       ncg     rms          rms(c)
DAV:   1    -0.128204082782E+03   -0.61862E-02   -0.69256E+00  4500   0.557E+00    0.162E-01
DAV:   2    -0.128205582076E+03   -0.14993E-02   -0.21875E-02  4810   0.794E-01    0.141E-01
DAV:   3    -0.128205494892E+03    0.87183E-04   -0.36711E-03  4870   0.719E-01    0.989E-02
DAV:   4    -0.128205238725E+03    0.25617E-03   -0.81915E-04  6130   0.308E-01    0.335E-02
DAV:   5    -0.128205251049E+03   -0.12324E-04   -0.26133E-04  4870   0.296E-01    0.227E-02
DAV:   6    -0.128205238255E+03    0.12794E-04   -0.14566E-04  4930   0.249E-01    0.132E-02
DAV:   7    -0.128205228769E+03    0.94864E-05   -0.34771E-05  3120   0.109E-01
   4 F= -.12820523E+03 E0= -.12816579E+03  d E =-.732990E-02
quench:  g(F)=  0.000E+00 g(S)=  0.000E+00 dE (1.order)= 0.000E+00
 bond charge predicted
       N       E                     dE             d eps       ncg     rms          rms(c)
DAV:   1    -0.128207531335E+03   -0.22931E-02   -0.32751E+00  4500   0.385E+00    0.107E-01
DAV:   2    -0.128208097556E+03   -0.56622E-03   -0.89606E-03  4630   0.437E-01    0.814E-02
DAV:   3    -0.128208074726E+03    0.22830E-04   -0.14562E-03  4860   0.443E-01    0.733E-02
DAV:   4    -0.128207944212E+03    0.13051E-03   -0.35995E-04  5510   0.317E-01    0.197E-02
DAV:   5    -0.128207981076E+03   -0.36863E-04   -0.25273E-04  6090   0.327E-01    0.248E-02
DAV:   6    -0.128207940345E+03    0.40731E-04   -0.97649E-05  3940   0.215E-01    0.671E-03
DAV:   7    -0.128207942675E+03   -0.23307E-05   -0.37736E-05  4150   0.338E-02
   5 F= -.12820794E+03 E0= -.12816842E+03  d E =-.271391E-02
quench:  g(F)=  0.000E+00 g(S)=  0.000E+00 dE (1.order)= 0.000E+00
 bond charge predicted
       N       E                     dE             d eps       ncg     rms          rms(c)
DAV:   1    -0.128208078968E+03   -0.13862E-03   -0.56735E+00  4500   0.492E+00    0.129E-01
DAV:   2    -0.128209883034E+03   -0.18041E-02   -0.22809E-02  4620   0.581E-01    0.102E-01
DAV:   3    -0.128209825118E+03    0.57915E-04   -0.18993E-03  4790   0.439E-01    0.770E-02
DAV:   4    -0.128209676852E+03    0.14827E-03   -0.39734E-04  4860   0.335E-01    0.382E-02
DAV:   5    -0.128209656964E+03    0.19888E-04   -0.29766E-04  6370   0.109E-01    0.124E-02
DAV:   6    -0.128209657379E+03   -0.41448E-06   -0.33352E-05  3010   0.113E-01
   6 F= -.12820966E+03 E0= -.12817012E+03  d E =-.171470E-02
quench:  g(F)=  0.000E+00 g(S)=  0.000E+00 dE (1.order)= 0.000E+00
 bond charge predicted
       N       E                     dE             d eps       ncg     rms          rms(c)
DAV:   1    -0.128209876155E+03   -0.21919E-03   -0.74151E-01  4590   0.176E+00    0.522E-02
DAV:   2    -0.128210170297E+03   -0.29414E-03   -0.37342E-03  4650   0.284E-01    0.442E-02
DAV:   3    -0.128210177548E+03   -0.72517E-05   -0.49837E-04  4610   0.268E-01    0.320E-02
DAV:   4    -0.128210173618E+03    0.39301E-05   -0.16448E-04  4680   0.258E-01    0.261E-02
DAV:   5    -0.128210155287E+03    0.18331E-04   -0.85515E-05  3530   0.216E-01    0.137E-02
DAV:   6    -0.128210146813E+03    0.84743E-05   -0.36818E-05  3130   0.103E-01
   7 F= -.12821015E+03 E0= -.12817048E+03  d E =-.489434E-03
quench:  g(F)=  0.000E+00 g(S)=  0.000E+00 dE (1.order)= 0.000E+00
 bond charge predicted
       N       E                     dE             d eps       ncg     rms          rms(c)
DAV:   1    -0.128210489255E+03   -0.33397E-03   -0.57779E-01  4540   0.143E+00    0.367E-02
DAV:   2    -0.128210762451E+03   -0.27320E-03   -0.30328E-03  4930   0.219E-01    0.348E-02
DAV:   3    -0.128210758997E+03    0.34543E-05   -0.25293E-04  4830   0.170E-01    0.226E-02
DAV:   4    -0.128210751831E+03    0.71654E-05   -0.40154E-05  4330   0.112E-01
   8 F= -.12821075E+03 E0= -.12817115E+03  d E =-.605018E-03
quench:  g(F)=  0.000E+00 g(S)=  0.000E+00 dE (1.order)= 0.000E+00
 bond charge predicted
       N       E                     dE             d eps       ncg     rms          rms(c)
DAV:   1    -0.128210999873E+03   -0.24088E-03   -0.27143E-01  4530   0.108E+00    0.361E-02
DAV:   2    -0.128211171649E+03   -0.17178E-03   -0.11421E-03  5970   0.493E-01    0.501E-02
DAV:   3    -0.128211057605E+03    0.11404E-03   -0.51526E-04  4820   0.444E-01    0.232E-02
DAV:   4    -0.128211054693E+03    0.29124E-05   -0.18037E-04  4640   0.103E-01    0.137E-02
DAV:   5    -0.128211054622E+03    0.70730E-07   -0.63572E-05  4670   0.805E-02
   9 F= -.12821105E+03 E0= -.12817150E+03  d E =-.302791E-03
quench:  g(F)=  0.000E+00 g(S)=  0.000E+00 dE (1.order)= 0.000E+00
 bond charge predicted
       N       E                     dE             d eps       ncg     rms          rms(c)
DAV:   1    -0.128211203305E+03   -0.14861E-03   -0.28080E-01  4520   0.113E+00    0.307E-02
DAV:   2    -0.128211262318E+03   -0.59013E-04   -0.84323E-04  4770   0.145E-01    0.266E-02
DAV:   3    -0.128211260655E+03    0.16637E-05   -0.13316E-04  4880   0.161E-01    0.205E-02
DAV:   4    -0.128211258086E+03    0.25689E-05   -0.60404E-05  3790   0.175E-01
  10 F= -.12821126E+03 E0= -.12817178E+03  d E =-.203463E-03
quench:  g(F)=  0.000E+00 g(S)=  0.000E+00 dE (1.order)= 0.000E+00
 bond charge predicted
       N       E                     dE             d eps       ncg     rms          rms(c)
DAV:   1    -0.128211529341E+03   -0.26869E-03   -0.14691E+00  4500   0.248E+00    0.621E-02
DAV:   2    -0.128211976080E+03   -0.44674E-03   -0.54791E-03  4990   0.305E-01    0.513E-02
DAV:   3    -0.128212000806E+03   -0.24727E-04   -0.64900E-04  4930   0.434E-01    0.494E-02
DAV:   4    -0.128211921713E+03    0.79094E-04   -0.21273E-04  5040   0.331E-01    0.254E-02
DAV:   5    -0.128211907879E+03    0.13834E-04   -0.15079E-04  6510   0.169E-01    0.142E-02
DAV:   6    -0.128211901437E+03    0.64421E-05   -0.70863E-05  4680   0.111E-01
  11 F= -.12821190E+03 E0= -.12817238E+03  d E =-.643351E-03
quench:  g(F)=  0.000E+00 g(S)=  0.000E+00 dE (1.order)= 0.000E+00
 bond charge predicted
       N       E                     dE             d eps       ncg     rms          rms(c)
DAV:   1    -0.128023487922E+03    0.18842E+00   -0.21404E+02  4500   0.305E+01    0.914E-01
DAV:   2    -0.128132063600E+03   -0.10858E+00   -0.12966E+00  4740   0.554E+00    0.880E-01
DAV:   3    -0.128129881208E+03    0.21824E-02   -0.13872E-01  4930   0.516E+00    0.506E-01
DAV:   4    -0.128130460106E+03   -0.57890E-03   -0.44680E-02  5260   0.446E+00    0.451E-01
DAV:   5    -0.128122211932E+03    0.82482E-02   -0.29367E-02  5250   0.370E+00    0.257E-01
DAV:   6    -0.128121330869E+03    0.88106E-03   -0.18332E-02  6040   0.126E+00    0.994E-02
DAV:   7    -0.128121301834E+03    0.29035E-04   -0.38963E-03  4740   0.496E-01    0.623E-02
DAV:   8    -0.128121367754E+03   -0.65920E-04   -0.21836E-03  4730   0.341E-01    0.503E-02
DAV:   9    -0.128121339854E+03    0.27900E-04   -0.41478E-04  4720   0.190E-01    0.294E-02
DAV:  10    -0.128121325449E+03    0.14405E-04   -0.83686E-05  4660   0.143E-01    0.895E-03
DAV:  11    -0.128121330473E+03   -0.50244E-05   -0.43886E-05  4240   0.369E-02
  12 F= -.12812133E+03 E0= -.12808080E+03  d E =0.905710E-01
quench:  g(F)=  0.000E+00 g(S)=  0.000E+00 dE (1.order)= 0.000E+00
 bond charge predicted
       N       E                     dE             d eps       ncg     rms          rms(c)
DAV:   1    -0.128154771351E+03   -0.33446E-01   -0.95808E+01  4500   0.205E+01    0.650E-01
DAV:   2    -0.128206958805E+03   -0.52187E-01   -0.62017E-01  4960   0.449E+00    0.677E-01
DAV:   3    -0.128204936519E+03    0.20223E-02   -0.77743E-02  4830   0.367E+00    0.337E-01
DAV:   4    -0.128207151763E+03   -0.22152E-02   -0.21596E-02  4920   0.307E+00    0.324E-01
DAV:   5    -0.128202319516E+03    0.48322E-02   -0.15177E-02  4950   0.277E+00    0.155E-01
DAV:   6    -0.128202053590E+03    0.26593E-03   -0.67114E-03  5110   0.736E-01    0.495E-02
DAV:   7    -0.128202141083E+03   -0.87493E-04   -0.20383E-03  4790   0.334E-01    0.352E-02
DAV:   8    -0.128202173653E+03   -0.32569E-04   -0.73746E-04  4750   0.198E-01    0.248E-02
DAV:   9    -0.128202163509E+03    0.10144E-04   -0.11749E-04  4640   0.912E-02    0.135E-02
DAV:  10    -0.128202160007E+03    0.35014E-05   -0.17701E-05  3000   0.750E-02
  13 F= -.12820216E+03 E0= -.12816296E+03  d E =-.808295E-01
quench:  g(F)=  0.000E+00 g(S)=  0.000E+00 dE (1.order)= 0.000E+00
 bond charge predicted
       N       E                     dE             d eps       ncg     rms          rms(c)
DAV:   1    -0.128202923405E+03   -0.75990E-03   -0.89295E+00  4500   0.581E+00    0.146E-01
DAV:   2    -0.128207344729E+03   -0.44213E-02   -0.48653E-02  4740   0.777E-01    0.129E-01
DAV:   3    -0.128207229791E+03    0.11494E-03   -0.22998E-03  4960   0.501E-01    0.881E-02
DAV:   4    -0.128207083837E+03    0.14595E-03   -0.49319E-04  5160   0.411E-01    0.654E-02
DAV:   5    -0.128207235915E+03   -0.15208E-03   -0.84646E-04  5850   0.676E-01    0.687E-02
DAV:   6    -0.128206966479E+03    0.26944E-03   -0.63262E-04  6960   0.550E-01    0.144E-02
DAV:   7    -0.128206976016E+03   -0.95371E-05   -0.17638E-04  5030   0.843E-02    0.902E-03
DAV:   8    -0.128206974780E+03    0.12363E-05   -0.22800E-05  2840   0.366E-02
  14 F= -.12820697E+03 E0= -.12816775E+03  d E =-.481477E-02
quench:  g(F)=  0.000E+00 g(S)=  0.000E+00 dE (1.order)= 0.000E+00
 bond charge predicted
       N       E                     dE             d eps       ncg     rms          rms(c)
DAV:   1    -0.128207136061E+03   -0.16004E-03   -0.11089E+01  4500   0.655E+00    0.174E-01
DAV:   2    -0.128212327531E+03   -0.51915E-02   -0.59136E-02  4760   0.900E-01    0.147E-01
DAV:   3    -0.128212257015E+03    0.70516E-04   -0.39637E-03  4840   0.691E-01    0.105E-01
DAV:   4    -0.128212114809E+03    0.14221E-03   -0.92078E-04  5030   0.581E-01    0.752E-02
DAV:   5    -0.128212225431E+03   -0.11062E-03   -0.11871E-03  5320   0.822E-01    0.751E-02
DAV:   6    -0.128211938845E+03    0.28659E-03   -0.85495E-04  8120   0.563E-01    0.167E-02
DAV:   7    -0.128211944779E+03   -0.59335E-05   -0.20907E-04  5520   0.971E-02    0.106E-02
DAV:   8    -0.128211943716E+03    0.10625E-05   -0.50198E-05  4660   0.532E-02
  15 F= -.12821194E+03 E0= -.12817257E+03  d E =-.496894E-02
quench:  g(F)=  0.000E+00 g(S)=  0.000E+00 dE (1.order)= 0.000E+00
 bond charge predicted
       N       E                     dE             d eps       ncg     rms          rms(c)
DAV:   1    -0.128212210032E+03   -0.26525E-03   -0.14568E+00  4520   0.243E+00    0.693E-02
DAV:   2    -0.128212850698E+03   -0.64067E-03   -0.76225E-03  4750   0.381E-01    0.605E-02
DAV:   3    -0.128212861566E+03   -0.10868E-04   -0.87794E-04  4840   0.329E-01    0.421E-02
DAV:   4    -0.128212844779E+03    0.16787E-04   -0.16090E-04  4920   0.256E-01    0.290E-02
DAV:   5    -0.128212843107E+03    0.16713E-05   -0.17823E-04  4970   0.313E-01    0.245E-02
DAV:   6    -0.128212811560E+03    0.31548E-04   -0.80437E-05  4170   0.173E-01    0.502E-03
DAV:   7    -0.128212815562E+03   -0.40025E-05   -0.47133E-05  4330   0.343E-02
  16 F= -.12821282E+03 E0= -.12817334E+03  d E =-.871846E-03
quench:  g(F)=  0.000E+00 g(S)=  0.000E+00 dE (1.order)= 0.000E+00
 bond charge predicted
       N       E                     dE             d eps       ncg     rms          rms(c)
DAV:   1    -0.128212261992E+03    0.54957E-03   -0.15802E+00  4500   0.251E+00    0.672E-02
DAV:   2    -0.128212925895E+03   -0.66390E-03   -0.76903E-03  5020   0.392E-01    0.638E-02
DAV:   3    -0.128212922155E+03    0.37408E-05   -0.82922E-04  4830   0.325E-01    0.417E-02
DAV:   4    -0.128212905154E+03    0.17001E-04   -0.15909E-04  4960   0.253E-01    0.310E-02
DAV:   5    -0.128212899167E+03    0.59871E-05   -0.18543E-04  5100   0.317E-01    0.245E-02
DAV:   6    -0.128212867838E+03    0.31329E-04   -0.92118E-05  4440   0.178E-01    0.564E-03
DAV:   7    -0.128212871849E+03   -0.40114E-05   -0.54358E-05  4440   0.402E-02
  17 F= -.12821287E+03 E0= -.12817334E+03  d E =-.562870E-04
quench:  g(F)=  0.000E+00 g(S)=  0.000E+00 dE (1.order)= 0.000E+00
 bond charge predicted
       N       E                     dE             d eps       ncg     rms          rms(c)
DAV:   1    -0.128212382458E+03    0.48538E-03   -0.56256E-01  4520   0.146E+00    0.376E-02
DAV:   2    -0.128212626619E+03   -0.24416E-03   -0.27801E-03  5500   0.225E-01    0.366E-02
DAV:   3    -0.128212623189E+03    0.34301E-05   -0.25548E-04  4880   0.187E-01    0.234E-02
DAV:   4    -0.128212618611E+03    0.45787E-05   -0.55418E-05  4370   0.149E-01
  18 F= -.12821262E+03 E0= -.12817311E+03  d E =0.253239E-03
quench:  g(F)=  0.000E+00 g(S)=  0.000E+00 dE (1.order)= 0.000E+00
 bond charge predicted
       N       E                     dE             d eps       ncg     rms          rms(c)
DAV:   1    -0.128212668679E+03   -0.45490E-04   -0.31550E-01  4520   0.122E+00    0.423E-02
DAV:   2    -0.128212760618E+03   -0.91938E-04   -0.91339E-04  4820   0.400E-01    0.471E-02
DAV:   3    -0.128212712851E+03    0.47767E-04   -0.49491E-04  4850   0.408E-01    0.281E-02
DAV:   4    -0.128212698380E+03    0.14471E-04   -0.17317E-04  4850   0.166E-01    0.195E-02
DAV:   5    -0.128212696288E+03    0.20919E-05   -0.90572E-05  4580   0.106E-01
  19 F= -.12821270E+03 E0= -.12817319E+03  d E =-.776773E-04
quench:  g(F)=  0.000E+00 g(S)=  0.000E+00 dE (1.order)= 0.000E+00
 bond charge predicted
       N       E                     dE             d eps       ncg     rms          rms(c)
DAV:   1    -0.128212829775E+03   -0.13139E-03   -0.52951E-02  4610   0.414E-01    0.101E-02
DAV:   2    -0.128212860146E+03   -0.30371E-04   -0.32820E-04  4630   0.573E-02    0.928E-03
DAV:   3    -0.128212860016E+03    0.13002E-06   -0.15014E-05  3030   0.389E-02
  20 F= -.12821286E+03 E0= -.12817334E+03  d E =-.163728E-03
quench:  g(F)=  0.000E+00 g(S)=  0.000E+00 dE (1.order)= 0.000E+00
 bond charge predicted
       N       E                     dE             d eps       ncg     rms          rms(c)
DAV:   1    -0.128212978502E+03   -0.11836E-03   -0.35910E-02  4700   0.337E-01    0.102E-02
DAV:   2    -0.128212998053E+03   -0.19550E-04   -0.18900E-04  5110   0.984E-02    0.121E-02
DAV:   3    -0.128212995383E+03    0.26693E-05   -0.35084E-05  3600   0.980E-02
  21 F= -.12821300E+03 E0= -.12817346E+03  d E =-.135368E-03
quench:  g(F)=  0.000E+00 g(S)=  0.000E+00 dE (1.order)= 0.000E+00
 bond charge predicted
       N       E                     dE             d eps       ncg     rms          rms(c)
DAV:   1    -0.128213165940E+03   -0.16789E-03   -0.82179E-02  4500   0.517E-01    0.133E-02
DAV:   2    -0.128213207884E+03   -0.41944E-04   -0.46289E-04  4590   0.616E-02    0.122E-02
DAV:   3    -0.128213205895E+03    0.19893E-05   -0.10911E-05  2880   0.304E-02
  22 F= -.12821321E+03 E0= -.12817367E+03  d E =-.210512E-03
quench:  g(F)=  0.000E+00 g(S)=  0.000E+00 dE (1.order)= 0.000E+00
 bond charge predicted
       N       E                     dE             d eps       ncg     rms          rms(c)
DAV:   1    -0.128213411562E+03   -0.20368E-03   -0.23163E-01  4550   0.883E-01    0.232E-02
DAV:   2    -0.128213523955E+03   -0.11239E-03   -0.11245E-03  6310   0.218E-01    0.268E-02
DAV:   3    -0.128213513957E+03    0.99979E-05   -0.18014E-04  4730   0.223E-01    0.185E-02
DAV:   4    -0.128213507255E+03    0.67019E-05   -0.41453E-05  4230   0.857E-02
  23 F= -.12821351E+03 E0= -.12817398E+03  d E =-.301360E-03
quench:  g(F)=  0.000E+00 g(S)=  0.000E+00 dE (1.order)= 0.000E+00
 bond charge predicted
       N       E                     dE             d eps       ncg     rms          rms(c)
DAV:   1    -0.128209679405E+03    0.38346E-02   -0.12091E+01  4500   0.661E+00    0.161E-01
DAV:   2    -0.128215050827E+03   -0.53714E-02   -0.60122E-02  4740   0.752E-01    0.135E-01
DAV:   3    -0.128214837210E+03    0.21362E-03   -0.23856E-03  4810   0.569E-01    0.101E-01
DAV:   4    -0.128214748657E+03    0.88553E-04   -0.90437E-04  5160   0.667E-01    0.830E-02
DAV:   5    -0.128214653956E+03    0.94701E-04   -0.12327E-03  7310   0.775E-01    0.623E-02
DAV:   6    -0.128214445795E+03    0.20816E-03   -0.72289E-04  7710   0.438E-01    0.144E-02
DAV:   7    -0.128214456930E+03   -0.11135E-04   -0.18321E-04  4700   0.650E-02    0.118E-02
DAV:   8    -0.128214455507E+03    0.14224E-05   -0.19936E-05  2930   0.364E-02
  24 F= -.12821446E+03 E0= -.12817484E+03  d E =-.948252E-03
quench:  g(F)=  0.000E+00 g(S)=  0.000E+00 dE (1.order)= 0.000E+00
 bond charge predicted
       N       E                     dE             d eps       ncg     rms          rms(c)
DAV:   1    -0.128214198992E+03    0.25794E-03   -0.25812E+00  4500   0.326E+00    0.958E-02
DAV:   2    -0.128215427604E+03   -0.12286E-02   -0.14812E-02  4630   0.554E-01    0.853E-02
DAV:   3    -0.128215444454E+03   -0.16850E-04   -0.17314E-03  4710   0.441E-01    0.538E-02
DAV:   4    -0.128215397411E+03    0.47043E-04   -0.22047E-04  4900   0.250E-01    0.323E-02
DAV:   5    -0.128215465041E+03   -0.67630E-04   -0.33920E-04  5100   0.428E-01    0.409E-02
DAV:   6    -0.128215364709E+03    0.10033E-03   -0.19035E-04  5420   0.310E-01    0.487E-03
DAV:   7    -0.128215370463E+03   -0.57536E-05   -0.68786E-05  4760   0.366E-02
  25 F= -.12821537E+03 E0= -.12817594E+03  d E =-.914956E-03
quench:  g(F)=  0.000E+00 g(S)=  0.000E+00 dE (1.order)= 0.000E+00
 bond charge predicted
       N       E                     dE             d eps       ncg     rms          rms(c)
DAV:   1    -0.128212650797E+03    0.27139E-02   -0.40459E+00  4500   0.360E+00    0.827E-02
DAV:   2    -0.128214700725E+03   -0.20499E-02   -0.22188E-02  4640   0.405E-01    0.711E-02
DAV:   3    -0.128214649084E+03    0.51641E-04   -0.76859E-04  4820   0.229E-01    0.527E-02
DAV:   4    -0.128214608598E+03    0.40486E-04   -0.15193E-04  5060   0.222E-01    0.434E-02
DAV:   5    -0.128214622472E+03   -0.13874E-04   -0.29616E-04  5890   0.381E-01    0.403E-02
DAV:   6    -0.128214539064E+03    0.83408E-04   -0.24851E-04  6780   0.318E-01    0.869E-03
DAV:   7    -0.128214542565E+03   -0.35014E-05   -0.68806E-05  4630   0.547E-02
  26 F= -.12821454E+03 E0= -.12817504E+03  d E =0.827898E-03
quench:  g(F)=  0.000E+00 g(S)=  0.000E+00 dE (1.order)= 0.000E+00
 bond charge predicted
       N       E                     dE             d eps       ncg     rms          rms(c)
DAV:   1    -0.128172341838E+03    0.42197E-01   -0.58062E+01  4500   0.126E+01    0.302E-01
DAV:   2    -0.128209286573E+03   -0.36945E-01   -0.39161E-01  4730   0.156E+00    0.275E-01
DAV:   3    -0.128208657032E+03    0.62954E-03   -0.12213E-02  4800   0.925E-01    0.198E-01
DAV:   4    -0.128208374344E+03    0.28269E-03   -0.23449E-03  5130   0.929E-01    0.176E-01
DAV:   5    -0.128207690069E+03    0.68427E-03   -0.19824E-03  6190   0.924E-01    0.121E-01
DAV:   6    -0.128207148125E+03    0.54194E-03   -0.25595E-03  7000   0.632E-01    0.324E-02
DAV:   7    -0.128207189334E+03   -0.41210E-04   -0.70594E-04  5090   0.217E-01    0.230E-02
DAV:   8    -0.128207183007E+03    0.63276E-05   -0.13027E-04  4660   0.832E-02    0.163E-02
DAV:   9    -0.128207177121E+03    0.58862E-05   -0.56624E-05  4840   0.632E-02
  27 F= -.12820718E+03 E0= -.12816777E+03  d E =0.736544E-02
quench:  g(F)=  0.000E+00 g(S)=  0.000E+00 dE (1.order)= 0.000E+00
 bond charge predicted
       N       E                     dE             d eps       ncg     rms          rms(c)
DAV:   1    -0.128206949848E+03    0.23316E-03   -0.44511E+00  4500   0.435E+00    0.120E-01
DAV:   2    -0.128208997073E+03   -0.20472E-02   -0.23463E-02  4680   0.643E-01    0.104E-01
DAV:   3    -0.128208987090E+03    0.99830E-05   -0.19380E-03  4780   0.519E-01    0.748E-02
DAV:   4    -0.128208938908E+03    0.48181E-04   -0.56704E-04  5030   0.513E-01    0.543E-02
DAV:   5    -0.128208910325E+03    0.28583E-04   -0.56217E-04  5310   0.582E-01    0.365E-02
DAV:   6    -0.128208827876E+03    0.82449E-04   -0.25734E-04  5620   0.322E-01    0.778E-03
DAV:   7    -0.128208830561E+03   -0.26850E-05   -0.10346E-04  5350   0.760E-02    0.594E-03
DAV:   8    -0.128208831365E+03   -0.80381E-06   -0.22164E-05  2900   0.245E-02
  28 F= -.12820883E+03 E0= -.12816922E+03  d E =-.165424E-02
quench:  g(F)=  0.000E+00 g(S)=  0.000E+00 dE (1.order)= 0.000E+00
 bond charge predicted
       N       E                     dE             d eps       ncg     rms          rms(c)
DAV:   1    -0.128185804706E+03    0.23026E-01   -0.34198E+01  4500   0.103E+01    0.243E-01
DAV:   2    -0.128204375448E+03   -0.18571E-01   -0.20012E-01  4750   0.122E+00    0.219E-01
DAV:   3    -0.128203876030E+03    0.49942E-03   -0.70298E-03  4750   0.812E-01    0.157E-01
DAV:   4    -0.128203622979E+03    0.25305E-03   -0.15769E-03  5160   0.781E-01    0.135E-01
DAV:   5    -0.128203411683E+03    0.21130E-03   -0.20945E-03  6150   0.101E+00    0.106E-01
DAV:   6    -0.128202866933E+03    0.54475E-03   -0.20257E-03  7450   0.676E-01    0.200E-02
DAV:   7    -0.128202909889E+03   -0.42957E-04   -0.52154E-04  4750   0.120E-01    0.182E-02
DAV:   8    -0.128202904429E+03    0.54597E-05   -0.61318E-05  4770   0.647E-02
  29 F= -.12820290E+03 E0= -.12816315E+03  d E =0.592694E-02
quench:  g(F)=  0.000E+00 g(S)=  0.000E+00 dE (1.order)= 0.000E+00
 bond charge predicted
       N       E                     dE             d eps       ncg     rms          rms(c)
DAV:   1    -0.128196783605E+03    0.61263E-02   -0.15066E+01  4500   0.751E+00    0.202E-01
DAV:   2    -0.128204206746E+03   -0.74231E-02   -0.84743E-02  4770   0.102E+00    0.164E-01
DAV:   3    -0.128204153980E+03    0.52766E-04   -0.53440E-03  4870   0.778E-01    0.117E-01
DAV:   4    -0.128204045059E+03    0.10892E-03   -0.14691E-03  4950   0.793E-01    0.942E-02
DAV:   5    -0.128204007782E+03    0.37277E-04   -0.15322E-03  5220   0.916E-01    0.819E-02
DAV:   6    -0.128203711036E+03    0.29675E-03   -0.99137E-04  7780   0.537E-01    0.182E-02
DAV:   7    -0.128203724611E+03   -0.13574E-04   -0.26652E-04  4760   0.105E-01    0.116E-02
DAV:   8    -0.128203722446E+03    0.21649E-05   -0.40786E-05  4500   0.499E-02
  30 F= -.12820372E+03 E0= -.12816397E+03  d E =-.818016E-03
quench:  g(F)=  0.000E+00 g(S)=  0.000E+00 dE (1.order)= 0.000E+00
 bond charge predicted
       N       E                     dE             d eps       ncg     rms          rms(c)
DAV:   1    -0.128203586992E+03    0.13762E-03   -0.71781E+00  4500   0.547E+00    0.163E-01
DAV:   2    -0.128207017938E+03   -0.34309E-02   -0.41543E-02  4660   0.101E+00    0.156E-01
DAV:   3    -0.128207028377E+03   -0.10439E-04   -0.52974E-03  4650   0.769E-01    0.864E-02
DAV:   4    -0.128206891200E+03    0.13718E-03   -0.66190E-04  4670   0.330E-01    0.522E-02
DAV:   5    -0.128206857282E+03    0.33918E-04   -0.32791E-04  5400   0.257E-01    0.279E-02
DAV:   6    -0.128206876125E+03   -0.18843E-04   -0.29211E-04  4900   0.371E-01    0.213E-02
DAV:   7    -0.128206838156E+03    0.37969E-04   -0.82300E-05  3020   0.201E-01    0.468E-03
DAV:   8    -0.128206841394E+03   -0.32376E-05   -0.44393E-05  4350   0.392E-02
  31 F= -.12820684E+03 E0= -.12816737E+03  d E =-.311895E-02
quench:  g(F)=  0.000E+00 g(S)=  0.000E+00 dE (1.order)= 0.000E+00
 bond charge predicted
       N       E                     dE             d eps       ncg     rms          rms(c)
DAV:   1    -0.128206616268E+03    0.22189E-03   -0.60943E-01  4510   0.153E+00    0.423E-02
DAV:   2    -0.128206918401E+03   -0.30213E-03   -0.35157E-03  4740   0.209E-01    0.326E-02
DAV:   3    -0.128206917179E+03    0.12227E-05   -0.22201E-04  4780   0.144E-01    0.233E-02
DAV:   4    -0.128206909892E+03    0.72864E-05   -0.50857E-05  4780   0.138E-01
  32 F= -.12820691E+03 E0= -.12816730E+03  d E =-.684983E-04
quench:  g(F)=  0.000E+00 g(S)=  0.000E+00 dE (1.order)= 0.000E+00
 bond charge predicted
       N       E                     dE             d eps       ncg     rms          rms(c)
DAV:   1    -0.128206547353E+03    0.36983E-03   -0.22728E-01  4520   0.898E-01    0.276E-02
DAV:   2    -0.128206786861E+03   -0.23951E-03   -0.15460E-03  6790   0.513E-01    0.487E-02
DAV:   3    -0.128206657193E+03    0.12967E-03   -0.50176E-04  4870   0.433E-01    0.185E-02
DAV:   4    -0.128206664546E+03   -0.73526E-05   -0.15682E-04  4860   0.801E-02    0.127E-02
DAV:   5    -0.128206663379E+03    0.11672E-05   -0.30982E-05  3780   0.474E-02
  33 F= -.12820666E+03 E0= -.12816699E+03  d E =0.246514E-03
quench:  g(F)=  0.000E+00 g(S)=  0.000E+00 dE (1.order)= 0.000E+00
 bond charge predicted
       N       E                     dE             d eps       ncg     rms          rms(c)
DAV:   1    -0.127896599712E+03    0.31006E+00   -0.28480E+02  4500   0.300E+01    0.798E-01
DAV:   2    -0.128119346898E+03   -0.22275E+00   -0.23709E+00  5210   0.515E+00    0.811E-01
DAV:   3    -0.128115692458E+03    0.36544E-02   -0.11324E-01  4870   0.397E+00    0.499E-01
DAV:   4    -0.128113645356E+03    0.20471E-02   -0.21825E-02  5090   0.270E+00    0.416E-01
DAV:   5    -0.128111789032E+03    0.18563E-02   -0.14945E-02  5140   0.262E+00    0.342E-01
DAV:   6    -0.128107869779E+03    0.39193E-02   -0.16121E-02  6450   0.152E+00    0.695E-02
DAV:   7    -0.128108368321E+03   -0.49854E-03   -0.58304E-03  4710   0.392E-01    0.675E-02
DAV:   8    -0.128108309798E+03    0.58523E-04   -0.62849E-04  4690   0.250E-01    0.411E-02
DAV:   9    -0.128108258113E+03    0.51685E-04   -0.22719E-04  4640   0.110E-01    0.158E-02
DAV:  10    -0.128108261311E+03   -0.31984E-05   -0.83085E-05  4820   0.657E-02
  34 F= -.12810826E+03 E0= -.12807165E+03  d E =0.984021E-01
quench:  g(F)=  0.000E+00 g(S)=  0.000E+00 dE (1.order)= 0.000E+00
 bond charge predicted
       N       E                     dE             d eps       ncg     rms          rms(c)
DAV:   1    -0.127813847979E+03    0.29441E+00   -0.43383E+02  4500   0.423E+01    0.137E+00
DAV:   2    -0.128139144505E+03   -0.32530E+00   -0.37667E+00  4830   0.861E+00    0.133E+00
DAV:   3    -0.128127662449E+03    0.11482E-01   -0.31221E-01  4880   0.679E+00    0.655E-01
DAV:   4    -0.128124693994E+03    0.29685E-02   -0.51625E-02  5010   0.363E+00    0.525E-01
DAV:   5    -0.128127430974E+03   -0.27370E-02   -0.52093E-02  5020   0.505E+00    0.495E-01
DAV:   6    -0.128116492102E+03    0.10939E-01   -0.28851E-02  7260   0.279E+00    0.104E-01
DAV:   7    -0.128117341256E+03   -0.84915E-03   -0.11356E-02  4700   0.525E-01    0.101E-01
DAV:   8    -0.128117229655E+03    0.11160E-03   -0.18411E-03  4800   0.449E-01    0.620E-02
DAV:   9    -0.128117182542E+03    0.47112E-04   -0.41968E-04  4770   0.136E-01    0.328E-02
DAV:  10    -0.128117160534E+03    0.22008E-04   -0.22755E-04  5480   0.876E-02    0.110E-02
DAV:  11    -0.128117167769E+03   -0.72350E-05   -0.52086E-05  4600   0.811E-02
  35 F= -.12811717E+03 E0= -.12807454E+03  d E =-.890646E-02
quench:  g(F)=  0.000E+00 g(S)=  0.000E+00 dE (1.order)= 0.000E+00
 bond charge predicted
       N       E                     dE             d eps       ncg     rms          rms(c)
DAV:   1    -0.127912706375E+03    0.20445E+00   -0.13638E+02  4500   0.212E+01    0.596E-01
DAV:   2    -0.128005375150E+03   -0.92669E-01   -0.10146E+00  4710   0.305E+00    0.490E-01
DAV:   3    -0.128003789752E+03    0.15854E-02   -0.43841E-02  4940   0.210E+00    0.328E-01
DAV:   4    -0.128003131601E+03    0.65815E-03   -0.10550E-02  5020   0.194E+00    0.282E-01
DAV:   5    -0.128002086665E+03    0.10449E-02   -0.95253E-03  5380   0.210E+00    0.216E-01
DAV:   6    -0.128000253665E+03    0.18330E-02   -0.78341E-03  7060   0.126E+00    0.421E-02
DAV:   7    -0.128000398309E+03   -0.14464E-03   -0.20689E-03  4720   0.288E-01    0.419E-02
DAV:   8    -0.128000375431E+03    0.22878E-04   -0.34635E-04  4820   0.171E-01    0.286E-02
DAV:   9    -0.128000346727E+03    0.28704E-04   -0.14831E-04  4890   0.875E-02    0.856E-03
DAV:  10    -0.128000349926E+03   -0.31985E-05   -0.36341E-05  3540   0.496E-02
  36 F= -.12800035E+03 E0= -.12795687E+03  d E =0.116818E+00
quench:  g(F)=  0.000E+00 g(S)=  0.000E+00 dE (1.order)= 0.000E+00
 bond charge predicted
       N       E                     dE             d eps       ncg     rms          rms(c)
DAV:   1    -0.128065656667E+03   -0.65310E-01   -0.15201E+01  4500   0.722E+00    0.205E-01
DAV:   2    -0.128075289538E+03   -0.96329E-02   -0.10590E-01  4900   0.137E+00    0.209E-01
DAV:   3    -0.128075145513E+03    0.14403E-03   -0.80091E-03  4800   0.977E-01    0.118E-01
DAV:   4    -0.128074999756E+03    0.14576E-03   -0.12172E-03  4760   0.567E-01    0.943E-02
DAV:   5    -0.128075144073E+03   -0.14432E-03   -0.17597E-03  5100   0.927E-01    0.934E-02
DAV:   6    -0.128074720496E+03    0.42358E-03   -0.11429E-03  7370   0.575E-01    0.186E-02
DAV:   7    -0.128074739591E+03   -0.19095E-04   -0.31731E-04  4690   0.896E-02    0.134E-02
DAV:   8    -0.128074736711E+03    0.28803E-05   -0.40126E-05  4590   0.531E-02
  37 F= -.12807474E+03 E0= -.12803176E+03  d E =-.743868E-01
quench:  g(F)=  0.000E+00 g(S)=  0.000E+00 dE (1.order)= 0.000E+00
 bond charge predicted
       N       E                     dE             d eps       ncg     rms          rms(c)
DAV:   1    -0.128116461634E+03   -0.41722E-01   -0.11627E+02  4500   0.218E+01    0.743E-01
DAV:   2    -0.128193075596E+03   -0.76614E-01   -0.88256E-01  5060   0.592E+00    0.865E-01
DAV:   3    -0.128185348417E+03    0.77272E-02   -0.99181E-02  4890   0.427E+00    0.359E-01
DAV:   4    -0.128187616532E+03   -0.22681E-02   -0.22582E-02  5100   0.293E+00    0.356E-01
DAV:   5    -0.128182954403E+03    0.46621E-02   -0.18618E-02  5010   0.290E+00    0.181E-01
DAV:   6    -0.128182448230E+03    0.50617E-03   -0.83847E-03  5220   0.793E-01    0.581E-02
DAV:   7    -0.128182567271E+03   -0.11904E-03   -0.24393E-03  4780   0.352E-01    0.430E-02
DAV:   8    -0.128182574520E+03   -0.72491E-05   -0.73519E-04  4700   0.217E-01    0.257E-02
DAV:   9    -0.128182563737E+03    0.10783E-04   -0.13967E-04  4600   0.799E-02    0.888E-03
DAV:  10    -0.128182562867E+03    0.87007E-06   -0.93240E-06  2940   0.474E-02
  38 F= -.12818256E+03 E0= -.12814200E+03  d E =-.107826E+00
quench:  g(F)=  0.000E+00 g(S)=  0.000E+00 dE (1.order)= 0.000E+00
 bond charge predicted
       N       E                     dE             d eps       ncg     rms          rms(c)
DAV:   1    -0.128168524779E+03    0.14039E-01   -0.23310E+01  4500   0.833E+00    0.190E-01
DAV:   2    -0.128181770104E+03   -0.13245E-01   -0.14090E-01  4640   0.901E-01    0.158E-01
DAV:   3    -0.128181428063E+03    0.34204E-03   -0.29203E-03  4770   0.313E-01    0.118E-01
DAV:   4    -0.128181195075E+03    0.23299E-03   -0.61711E-04  5200   0.423E-01    0.972E-02
DAV:   5    -0.128181053220E+03    0.14186E-03   -0.10141E-03  6720   0.599E-01    0.594E-02
DAV:   6    -0.128180934178E+03    0.11904E-03   -0.84305E-04  6670   0.634E-01    0.265E-02
DAV:   7    -0.128180897187E+03    0.36991E-04   -0.25973E-04  6860   0.233E-01    0.126E-02
DAV:   8    -0.128180901533E+03   -0.43457E-05   -0.96664E-05  4720   0.455E-02
  39 F= -.12818090E+03 E0= -.12814060E+03  d E =0.166133E-02
quench:  g(F)=  0.000E+00 g(S)=  0.000E+00 dE (1.order)= 0.000E+00
 bond charge predicted
       N       E                     dE             d eps       ncg     rms          rms(c)
DAV:   1    -0.128182114084E+03   -0.12169E-02   -0.38201E-01  4610   0.113E+00    0.290E-02
DAV:   2    -0.128182331385E+03   -0.21730E-03   -0.23932E-03  4570   0.156E-01    0.241E-02
DAV:   3    -0.128182333777E+03   -0.23921E-05   -0.13694E-04  4680   0.123E-01    0.186E-02
DAV:   4    -0.128182332182E+03    0.15952E-05   -0.38279E-05  3350   0.128E-01
  40 F= -.12818233E+03 E0= -.12814203E+03  d E =-.143065E-02
quench:  g(F)=  0.000E+00 g(S)=  0.000E+00 dE (1.order)= 0.000E+00
 bond charge predicted
       N       E                     dE             d eps       ncg     rms          rms(c)
DAV:   1    -0.128182749035E+03   -0.41526E-03   -0.51766E+00  4500   0.430E+00    0.116E-01
DAV:   2    -0.128185491388E+03   -0.27424E-02   -0.29977E-02  4610   0.665E-01    0.101E-01
DAV:   3    -0.128185633963E+03   -0.14258E-03   -0.31131E-03  4680   0.808E-01    0.900E-02
DAV:   4    -0.128185457932E+03    0.17603E-03   -0.70854E-04  5040   0.564E-01    0.552E-02
DAV:   5    -0.128185407679E+03    0.50253E-04   -0.32862E-04  6090   0.309E-01    0.376E-02
DAV:   6    -0.128185372394E+03    0.35284E-04   -0.26022E-04  5480   0.224E-01    0.123E-02
DAV:   7    -0.128185379209E+03   -0.68143E-05   -0.10208E-04  4640   0.601E-02    0.791E-03
DAV:   8    -0.128185377026E+03    0.21829E-05   -0.96233E-06  2870   0.384E-02
  41 F= -.12818538E+03 E0= -.12814540E+03  d E =-.304484E-02
quench:  g(F)=  0.000E+00 g(S)=  0.000E+00 dE (1.order)= 0.000E+00
 bond charge predicted
       N       E                     dE             d eps       ncg     rms          rms(c)
DAV:   1    -0.128184871285E+03    0.50792E-03   -0.19715E+00  4570   0.262E+00    0.615E-02
DAV:   2    -0.128185789367E+03   -0.91808E-03   -0.10074E-02  4620   0.285E-01    0.505E-02
DAV:   3    -0.128185761194E+03    0.28173E-04   -0.32010E-04  4960   0.205E-01    0.396E-02
DAV:   4    -0.128185754249E+03    0.69445E-05   -0.14428E-04  5000   0.273E-01    0.340E-02
DAV:   5    -0.128185725102E+03    0.29147E-04   -0.16131E-04  4370   0.280E-01    0.232E-02
DAV:   6    -0.128185701762E+03    0.23340E-04   -0.10769E-04  5620   0.155E-01    0.747E-03
DAV:   7    -0.128185703913E+03   -0.21508E-05   -0.39507E-05  3940   0.296E-02
  42 F= -.12818570E+03 E0= -.12814587E+03  d E =-.326887E-03
quench:  g(F)=  0.000E+00 g(S)=  0.000E+00 dE (1.order)= 0.000E+00
 bond charge predicted
       N       E                     dE             d eps       ncg     rms          rms(c)
DAV:   1    -0.126429388505E+03    0.17563E+01   -0.14737E+03  4500   0.708E+01    0.196E+00
DAV:   2    -0.128194673458E+03   -0.17653E+01   -0.18734E+01  4770   0.122E+01    0.167E+00
DAV:   3    -0.128198695008E+03   -0.40215E-02   -0.74821E-01  4910   0.883E+00    0.102E+00
DAV:   4    -0.128186103298E+03    0.12592E-01   -0.12514E-01  5190   0.598E+00    0.845E-01
DAV:   5    -0.128173487878E+03    0.12615E-01   -0.43129E-02  5090   0.326E+00    0.631E-01
DAV:   6    -0.128163713425E+03    0.97745E-02   -0.44118E-02  5380   0.213E+00    0.320E-01
DAV:   7    -0.128162404095E+03    0.13093E-02   -0.23561E-02  5140   0.120E+00    0.101E-01
DAV:   8    -0.128162339882E+03    0.64213E-04   -0.47152E-03  4720   0.724E-01    0.699E-02
DAV:   9    -0.128162406472E+03   -0.66589E-04   -0.17220E-03  4720   0.346E-01    0.531E-02
DAV:  10    -0.128162391235E+03    0.15236E-04   -0.59199E-04  4930   0.280E-01    0.314E-02
DAV:  11    -0.128162401799E+03   -0.10564E-04   -0.20785E-04  4800   0.133E-01    0.133E-02
DAV:  12    -0.128162413134E+03   -0.11335E-04   -0.42386E-05  4440   0.583E-02    0.100E-02
DAV:  13    -0.128162420776E+03   -0.76420E-05   -0.11471E-05  2920   0.342E-02
  43 F= -.12816242E+03 E0= -.12812268E+03  d E =0.232831E-01
quench:  g(F)=  0.000E+00 g(S)=  0.000E+00 dE (1.order)= 0.000E+00
 bond charge predicted
       N       E                     dE             d eps       ncg     rms          rms(c)
DAV:   1    -0.128165784666E+03   -0.33715E-02   -0.31075E+01  4500   0.105E+01    0.273E-01
DAV:   2    -0.128181669725E+03   -0.15885E-01   -0.17703E-01  4750   0.165E+00    0.267E-01
DAV:   3    -0.128181100414E+03    0.56931E-03   -0.10691E-02  4800   0.115E+00    0.160E-01
DAV:   4    -0.128180655667E+03    0.44475E-03   -0.14727E-03  4810   0.451E-01    0.116E-01
DAV:   5    -0.128180854520E+03   -0.19885E-03   -0.21408E-03  5780   0.924E-01    0.992E-02
DAV:   6    -0.128180287891E+03    0.56663E-03   -0.15968E-03  6530   0.843E-01    0.158E-02
DAV:   7    -0.128180317518E+03   -0.29626E-04   -0.42865E-04  4940   0.124E-01    0.183E-02
DAV:   8    -0.128180314580E+03    0.29378E-05   -0.80286E-05  4700   0.866E-02
  44 F= -.12818031E+03 E0= -.12814043E+03  d E =-.178938E-01
quench:  g(F)=  0.000E+00 g(S)=  0.000E+00 dE (1.order)= 0.000E+00
 bond charge predicted
       N       E                     dE             d eps       ncg     rms          rms(c)
DAV:   1    -0.128182252020E+03   -0.19345E-02   -0.18988E+00  4500   0.261E+00    0.653E-02
DAV:   2    -0.128183100262E+03   -0.84824E-03   -0.95275E-03  5070   0.348E-01    0.586E-02
DAV:   3    -0.128183089070E+03    0.11192E-04   -0.64086E-04  4900   0.280E-01    0.410E-02
DAV:   4    -0.128183069028E+03    0.20043E-04   -0.12311E-04  4880   0.213E-01    0.308E-02
DAV:   5    -0.128183080697E+03   -0.11669E-04   -0.17507E-04  5080   0.302E-01    0.301E-02
DAV:   6    -0.128183036592E+03    0.44105E-04   -0.12623E-04  5310   0.208E-01    0.766E-03
DAV:   7    -0.128183039764E+03   -0.31723E-05   -0.51601E-05  4600   0.414E-02
  45 F= -.12818304E+03 E0= -.12814314E+03  d E =-.272518E-02
quench:  g(F)=  0.000E+00 g(S)=  0.000E+00 dE (1.order)= 0.000E+00
 bond charge predicted
       N       E                     dE             d eps       ncg     rms          rms(c)
DAV:   1    -0.128169440710E+03    0.13596E-01   -0.41202E+01  4500   0.122E+01    0.316E-01
DAV:   2    -0.128189136266E+03   -0.19696E-01   -0.22275E-01  4970   0.190E+00    0.312E-01
DAV:   3    -0.128188385701E+03    0.75056E-03   -0.14367E-02  4880   0.146E+00    0.190E-01
DAV:   4    -0.128188140008E+03    0.24569E-03   -0.34933E-03  5070   0.115E+00    0.164E-01
DAV:   5    -0.128187758631E+03    0.38138E-03   -0.35288E-03  5230   0.135E+00    0.128E-01
DAV:   6    -0.128187146258E+03    0.61237E-03   -0.30497E-03  7170   0.695E-01    0.299E-02
DAV:   7    -0.128187188301E+03   -0.42042E-04   -0.79810E-04  4760   0.161E-01    0.245E-02
DAV:   8    -0.128187177861E+03    0.10440E-04   -0.14296E-04  4810   0.110E-01    0.141E-02
DAV:   9    -0.128187172872E+03    0.49894E-05   -0.19937E-05  3370   0.450E-02
  46 F= -.12818717E+03 E0= -.12814718E+03  d E =-.413311E-02
quench:  g(F)=  0.000E+00 g(S)=  0.000E+00 dE (1.order)= 0.000E+00
 bond charge predicted
       N       E                     dE             d eps       ncg     rms          rms(c)
DAV:   1    -0.128191607220E+03   -0.44294E-02   -0.20494E+01  4500   0.947E+00    0.284E-01
DAV:   2    -0.128197397634E+03   -0.57904E-02   -0.77998E-02  4950   0.189E+00    0.297E-01
DAV:   3    -0.128196771059E+03    0.62658E-03   -0.13911E-02  4890   0.178E+00    0.166E-01
DAV:   4    -0.128196793770E+03   -0.22712E-04   -0.48295E-03  5020   0.152E+00    0.154E-01
DAV:   5    -0.128195678646E+03    0.11151E-02   -0.30032E-03  5980   0.110E+00    0.424E-02
DAV:   6    -0.128195764912E+03   -0.86266E-04   -0.17493E-03  5000   0.279E-01    0.284E-02
DAV:   7    -0.128195781456E+03   -0.16544E-04   -0.35268E-04  4660   0.134E-01    0.202E-02
DAV:   8    -0.128195776121E+03    0.53348E-05   -0.53967E-05  4630   0.464E-02
  47 F= -.12819578E+03 E0= -.12815591E+03  d E =-.860325E-02
quench:  g(F)=  0.000E+00 g(S)=  0.000E+00 dE (1.order)= 0.000E+00
 bond charge predicted
       N       E                     dE             d eps       ncg     rms          rms(c)
DAV:   1    -0.127330906747E+03    0.86487E+00   -0.94809E+02  4500   0.579E+01    0.156E+00
DAV:   2    -0.128216590356E+03   -0.88568E+00   -0.95379E+00  5160   0.105E+01    0.151E+00
DAV:   3    -0.128209058593E+03    0.75318E-02   -0.45636E-01  4890   0.894E+00    0.896E-01
DAV:   4    -0.128195414397E+03    0.13644E-01   -0.95045E-02  5170   0.579E+00    0.755E-01
DAV:   5    -0.128182761704E+03    0.12653E-01   -0.47039E-02  5280   0.360E+00    0.517E-01
DAV:   6    -0.128176071921E+03    0.66898E-02   -0.57727E-02  5500   0.226E+00    0.182E-01
DAV:   7    -0.128176602989E+03   -0.53107E-03   -0.14480E-02  4800   0.114E+00    0.920E-02
DAV:   8    -0.128176648698E+03   -0.45708E-04   -0.49153E-03  4670   0.665E-01    0.736E-02
DAV:   9    -0.128176612951E+03    0.35747E-04   -0.93323E-04  4810   0.288E-01    0.463E-02
DAV:  10    -0.128176611347E+03    0.16030E-05   -0.57372E-04  4770   0.277E-01    0.286E-02
DAV:  11    -0.128176620968E+03   -0.96209E-05   -0.17057E-04  4610   0.112E-01    0.138E-02
DAV:  12    -0.128176624821E+03   -0.38529E-05   -0.35823E-05  4050   0.639E-02
  48 F= -.12817662E+03 E0= -.12813688E+03  d E =0.191513E-01
quench:  g(F)=  0.000E+00 g(S)=  0.000E+00 dE (1.order)= 0.000E+00
 bond charge predicted
       N       E                     dE             d eps       ncg     rms          rms(c)
DAV:   1    -0.128172492137E+03    0.41288E-02   -0.22284E+01  4500   0.983E+00    0.280E-01
DAV:   2    -0.128179547485E+03   -0.70553E-02   -0.91305E-02  4840   0.154E+00    0.262E-01
DAV:   3    -0.128179144640E+03    0.40285E-03   -0.11306E-02  4860   0.138E+00    0.165E-01
DAV:   4    -0.128179139669E+03    0.49710E-05   -0.34752E-03  4970   0.126E+00    0.135E-01
DAV:   5    -0.128178474482E+03    0.66519E-03   -0.33205E-03  5180   0.133E+00    0.690E-02
DAV:   6    -0.128178308186E+03    0.16630E-03   -0.15790E-03  7060   0.489E-01    0.210E-02
DAV:   7    -0.128178335130E+03   -0.26944E-04   -0.44872E-04  4780   0.107E-01    0.173E-02
DAV:   8    -0.128178329862E+03    0.52677E-05   -0.58198E-05  4610   0.529E-02
  49 F= -.12817833E+03 E0= -.12813829E+03  d E =-.170504E-02
quench:  g(F)=  0.000E+00 g(S)=  0.000E+00 dE (1.order)= 0.000E+00
 bond charge predicted
       N       E                     dE             d eps       ncg     rms          rms(c)
DAV:   1    -0.128178475712E+03   -0.14058E-03   -0.28292E+00  4500   0.352E+00    0.959E-02
DAV:   2    -0.128179338829E+03   -0.86312E-03   -0.11101E-02  4700   0.421E-01    0.752E-02
DAV:   3    -0.128179304080E+03    0.34749E-04   -0.10008E-03  4710   0.351E-01    0.594E-02
DAV:   4    -0.128179217776E+03    0.86304E-04   -0.23526E-04  5020   0.269E-01    0.256E-02
DAV:   5    -0.128179249955E+03   -0.32179E-04   -0.20823E-04  6190   0.308E-01    0.265E-02
DAV:   6    -0.128179209658E+03    0.40298E-04   -0.13569E-04  3980   0.265E-01    0.654E-03
DAV:   7    -0.128179206943E+03    0.27144E-05   -0.23390E-05  2800   0.613E-02
  50 F= -.12817921E+03 E0= -.12813929E+03  d E =-.877081E-03
quench:  g(F)=  0.000E+00 g(S)=  0.000E+00 dE (1.order)= 0.000E+00
 bond charge predicted
       N       E                     dE             d eps       ncg     rms          rms(c)
DAV:   1    -0.128178997093E+03    0.21257E-03   -0.52778E-01  4640   0.146E+00    0.392E-02
DAV:   2    -0.128179170248E+03   -0.17316E-03   -0.21991E-03  4790   0.155E-01    0.313E-02
DAV:   3    -0.128179157418E+03    0.12831E-04   -0.13102E-04  4780   0.116E-01    0.226E-02
DAV:   4    -0.128179144197E+03    0.13221E-04   -0.36824E-05  4530   0.101E-01    0.141E-02
DAV:   5    -0.128179140095E+03    0.41012E-05   -0.21731E-05  3290   0.674E-02
  51 F= -.12817914E+03 E0= -.12813922E+03  d E =0.668479E-04
quench:  g(F)=  0.000E+00 g(S)=  0.000E+00 dE (1.order)= 0.000E+00
 bond charge predicted
       N       E                     dE             d eps       ncg     rms          rms(c)
DAV:   1    -0.128174855119E+03    0.42891E-02   -0.96727E+00  4500   0.640E+00    0.167E-01
DAV:   2    -0.128177700415E+03   -0.28453E-02   -0.36849E-02  4650   0.661E-01    0.133E-01
DAV:   3    -0.128177473132E+03    0.22728E-03   -0.22902E-03  4880   0.544E-01    0.977E-02
DAV:   4    -0.128177292292E+03    0.18084E-03   -0.78949E-04  5140   0.578E-01    0.639E-02
DAV:   5    -0.128177454637E+03   -0.16235E-03   -0.13563E-03  6290   0.845E-01    0.710E-02
DAV:   6    -0.128177142585E+03    0.31205E-03   -0.77015E-04  8360   0.559E-01    0.122E-02
DAV:   7    -0.128177151750E+03   -0.91644E-05   -0.15387E-04  5210   0.655E-02    0.940E-03
DAV:   8    -0.128177150985E+03    0.76507E-06   -0.17403E-05  2870   0.319E-02
  52 F= -.12817715E+03 E0= -.12813721E+03  d E =0.198911E-02
quench:  g(F)=  0.000E+00 g(S)=  0.000E+00 dE (1.order)= 0.000E+00
 bond charge predicted
       N       E                     dE             d eps       ncg     rms          rms(c)
DAV:   1    -0.128155843216E+03    0.21309E-01   -0.48408E+01  4500   0.141E+01    0.370E-01
DAV:   2    -0.128172074205E+03   -0.16231E-01   -0.20345E-01  5120   0.164E+00    0.314E-01
DAV:   3    -0.128171569972E+03    0.50423E-03   -0.15358E-02  4900   0.185E+00    0.238E-01
DAV:   4    -0.128170859759E+03    0.71021E-03   -0.65187E-03  5290   0.188E+00    0.182E-01
DAV:   5    -0.128169674202E+03    0.11856E-02   -0.57624E-03  7760   0.146E+00    0.100E-01
DAV:   6    -0.128169280532E+03    0.39367E-03   -0.27891E-03  6830   0.679E-01    0.298E-02
DAV:   7    -0.128169323571E+03   -0.43039E-04   -0.79964E-04  4850   0.154E-01    0.247E-02
DAV:   8    -0.128169318056E+03    0.55146E-05   -0.18942E-04  4620   0.115E-01    0.165E-02
DAV:   9    -0.128169314093E+03    0.39632E-05   -0.28480E-05  3480   0.537E-02
  53 F= -.12816931E+03 E0= -.12812933E+03  d E =0.783689E-02
quench:  g(F)=  0.000E+00 g(S)=  0.000E+00 dE (1.order)= 0.000E+00
 bond charge predicted
       N       E                     dE             d eps       ncg     rms          rms(c)
DAV:   1    -0.128036564924E+03    0.13275E+00   -0.29821E+02  4500   0.378E+01    0.120E+00
DAV:   2    -0.128141880246E+03   -0.10532E+00   -0.14097E+00  5340   0.923E+00    0.137E+00
DAV:   3    -0.128120916002E+03    0.20964E-01   -0.23131E-01  4890   0.772E+00    0.617E-01
DAV:   4    -0.128124280379E+03   -0.33644E-02   -0.76906E-02  5160   0.594E+00    0.644E-01
DAV:   5    -0.128103183550E+03    0.21097E-01   -0.58325E-02  5320   0.451E+00    0.231E-01
DAV:   6    -0.128105499416E+03   -0.23159E-02   -0.35335E-02  5030   0.109E+00    0.241E-01
DAV:   7    -0.128104899640E+03    0.59978E-03   -0.92361E-03  4690   0.109E+00    0.840E-02
DAV:   8    -0.128104769960E+03    0.12968E-03   -0.75043E-04  6560   0.291E-01    0.350E-02
DAV:   9    -0.128104796640E+03   -0.26680E-04   -0.60965E-04  4650   0.130E-01    0.219E-02
DAV:  10    -0.128104797669E+03   -0.10293E-05   -0.10467E-04  4680   0.139E-01    0.146E-02
DAV:  11    -0.128104796216E+03    0.14538E-05   -0.18447E-05  2970   0.622E-02
  54 F= -.12810480E+03 E0= -.12806549E+03  d E =0.645179E-01
quench:  g(F)=  0.000E+00 g(S)=  0.000E+00 dE (1.order)= 0.000E+00
 bond charge predicted
       N       E                     dE             d eps       ncg     rms          rms(c)
DAV:   1    -0.128121373196E+03   -0.16576E-01   -0.18141E+01  4500   0.883E+00    0.252E-01
DAV:   2    -0.128128932512E+03   -0.75593E-02   -0.93250E-02  4640   0.117E+00    0.187E-01
DAV:   3    -0.128128828730E+03    0.10378E-03   -0.59483E-03  4880   0.898E-01    0.136E-01
DAV:   4    -0.128128769708E+03    0.59022E-04   -0.24159E-03  4790   0.110E+00    0.105E-01
DAV:   5    -0.128128639467E+03    0.13024E-03   -0.21780E-03  5170   0.114E+00    0.824E-02
DAV:   6    -0.128128298290E+03    0.34118E-03   -0.10333E-03  8140   0.585E-01    0.134E-02
DAV:   7    -0.128128319446E+03   -0.21156E-04   -0.29768E-04  4700   0.104E-01    0.148E-02
DAV:   8    -0.128128318047E+03    0.13987E-05   -0.36148E-05  4110   0.527E-02
  55 F= -.12812832E+03 E0= -.12808852E+03  d E =-.235218E-01
quench:  g(F)=  0.000E+00 g(S)=  0.000E+00 dE (1.order)= 0.000E+00
 bond charge predicted
       N       E                     dE             d eps       ncg     rms          rms(c)
DAV:   1    -0.128130383616E+03   -0.20642E-02   -0.12327E+00  4520   0.225E+00    0.613E-02
DAV:   2    -0.128130862048E+03   -0.47843E-03   -0.57823E-03  4610   0.307E-01    0.519E-02
DAV:   3    -0.128130862043E+03    0.55225E-08   -0.56956E-04  4590   0.249E-01    0.371E-02
DAV:   4    -0.128130832069E+03    0.29974E-04   -0.83140E-05  4710   0.144E-01    0.202E-02
DAV:   5    -0.128130833788E+03   -0.17184E-05   -0.54472E-05  4060   0.132E-01
  56 F= -.12813083E+03 E0= -.12809099E+03  d E =-.251574E-02
quench:  g(F)=  0.000E+00 g(S)=  0.000E+00 dE (1.order)= 0.000E+00
 bond charge predicted
       N       E                     dE             d eps       ncg     rms          rms(c)
DAV:   1    -0.128122563752E+03    0.82683E-02   -0.22175E+01  4500   0.953E+00    0.253E-01
DAV:   2    -0.128131124189E+03   -0.85604E-02   -0.10320E-01  4600   0.123E+00    0.211E-01
DAV:   3    -0.128131059471E+03    0.64718E-04   -0.84109E-03  4870   0.117E+00    0.159E-01
DAV:   4    -0.128130884568E+03    0.17490E-03   -0.30119E-03  4930   0.121E+00    0.122E-01
DAV:   5    -0.128130525303E+03    0.35927E-03   -0.23623E-03  5460   0.114E+00    0.838E-02
DAV:   6    -0.128130254986E+03    0.27032E-03   -0.15147E-03  7380   0.530E-01    0.222E-02
DAV:   7    -0.128130268810E+03   -0.13824E-04   -0.36448E-04  4740   0.131E-01    0.157E-02
DAV:   8    -0.128130267899E+03    0.91168E-06   -0.81991E-05  4660   0.704E-02
  57 F= -.12813027E+03 E0= -.12809040E+03  d E =0.565889E-03
quench:  g(F)=  0.000E+00 g(S)=  0.000E+00 dE (1.order)= 0.000E+00
 bond charge predicted
       N       E                     dE             d eps       ncg     rms          rms(c)
DAV:   1    -0.128118997820E+03    0.11271E-01   -0.12584E+01  4500   0.712E+00    0.179E-01
DAV:   2    -0.128123433630E+03   -0.44358E-02   -0.53325E-02  4680   0.752E-01    0.148E-01
DAV:   3    -0.128123170761E+03    0.26287E-03   -0.28467E-03  4940   0.554E-01    0.108E-01
DAV:   4    -0.128122881179E+03    0.28958E-03   -0.73207E-04  4910   0.444E-01    0.672E-02
DAV:   5    -0.128122813799E+03    0.67380E-04   -0.74288E-04  6820   0.289E-01    0.300E-02
DAV:   6    -0.128122787795E+03    0.26004E-04   -0.25479E-04  5490   0.316E-01    0.188E-02
DAV:   7    -0.128122773664E+03    0.14131E-04   -0.59577E-05  4600   0.127E-01    0.806E-03
DAV:   8    -0.128122774766E+03   -0.11019E-05   -0.35444E-05  4110   0.430E-02
  58 F= -.12812277E+03 E0= -.12808297E+03  d E =0.749313E-02
quench:  g(F)=  0.000E+00 g(S)=  0.000E+00 dE (1.order)= 0.000E+00
 bond charge predicted
       N       E                     dE             d eps       ncg     rms          rms(c)
DAV:   1    -0.128023450976E+03    0.99323E-01   -0.16546E+02  4500   0.275E+01    0.834E-01
DAV:   2    -0.128085323275E+03   -0.61872E-01   -0.80415E-01  5150   0.578E+00    0.916E-01
DAV:   3    -0.128075764290E+03    0.95590E-02   -0.10002E-01  4940   0.440E+00    0.428E-01
DAV:   4    -0.128078930414E+03   -0.31661E-02   -0.31877E-02  5470   0.366E+00    0.418E-01
DAV:   5    -0.128069247365E+03    0.96830E-02   -0.30038E-02  5150   0.389E+00    0.205E-01
DAV:   6    -0.128069102518E+03    0.14485E-03   -0.15265E-02  6470   0.105E+00    0.970E-02
DAV:   7    -0.128069011811E+03    0.90707E-04   -0.26408E-03  4800   0.469E-01    0.458E-02
DAV:   8    -0.128069085500E+03   -0.73689E-04   -0.13173E-03  4730   0.235E-01    0.345E-02
DAV:   9    -0.128069076672E+03    0.88276E-05   -0.28555E-04  4690   0.126E-01    0.167E-02
DAV:  10    -0.128069075380E+03    0.12927E-05   -0.23170E-05  2990   0.890E-02
  59 F= -.12806908E+03 E0= -.12802953E+03  d E =0.536994E-01
quench:  g(F)=  0.000E+00 g(S)=  0.000E+00 dE (1.order)= 0.000E+00
 bond charge predicted
       N       E                     dE             d eps       ncg     rms          rms(c)
DAV:   1    -0.128105331515E+03   -0.36255E-01   -0.14945E+02  4500   0.265E+01    0.753E-01
DAV:   2    -0.128138000997E+03   -0.32669E-01   -0.49512E-01  5080   0.407E+00    0.717E-01
DAV:   3    -0.128134694243E+03    0.33068E-02   -0.70350E-02  4870   0.456E+00    0.450E-01
DAV:   4    -0.128133489552E+03    0.12047E-02   -0.33598E-02  6620   0.410E+00    0.358E-01
DAV:   5    -0.128124888185E+03    0.86014E-02   -0.25249E-02  7440   0.309E+00    0.152E-01
DAV:   6    -0.128125273976E+03   -0.38579E-03   -0.10756E-02  5310   0.996E-01    0.108E-01
DAV:   7    -0.128125223620E+03    0.50356E-04   -0.29934E-03  4830   0.504E-01    0.424E-02
DAV:   8    -0.128125247093E+03   -0.23473E-04   -0.84506E-04  4710   0.157E-01    0.333E-02
DAV:   9    -0.128125230978E+03    0.16115E-04   -0.15444E-04  4610   0.129E-01    0.192E-02
DAV:  10    -0.128125225486E+03    0.54926E-05   -0.38316E-05  4180   0.972E-02
  60 F= -.12812523E+03 E0= -.12808526E+03  d E =-.561501E-01
quench:  g(F)=  0.000E+00 g(S)=  0.000E+00 dE (1.order)= 0.000E+00
 bond charge predicted
       N       E                     dE             d eps       ncg     rms          rms(c)
DAV:   1    -0.128133353550E+03   -0.81226E-02   -0.59306E+00  4540   0.520E+00    0.145E-01
DAV:   2    -0.128134693854E+03   -0.13403E-02   -0.19778E-02  4600   0.585E-01    0.110E-01
DAV:   3    -0.128134605443E+03    0.88411E-04   -0.19004E-03  4930   0.619E-01    0.890E-02
DAV:   4    -0.128134536675E+03    0.68769E-04   -0.11170E-03  4990   0.770E-01    0.595E-02
DAV:   5    -0.128134398035E+03    0.13864E-03   -0.85256E-04  7200   0.665E-01    0.313E-02
DAV:   6    -0.128134349383E+03    0.48652E-04   -0.29468E-04  7200   0.256E-01    0.846E-03
DAV:   7    -0.128134354621E+03   -0.52382E-05   -0.80360E-05  4740   0.450E-02
  61 F= -.12813435E+03 E0= -.12809431E+03  d E =-.912914E-02
quench:  g(F)=  0.000E+00 g(S)=  0.000E+00 dE (1.order)= 0.000E+00
 bond charge predicted
       N       E                     dE             d eps       ncg     rms          rms(c)
DAV:   1    -0.128138625991E+03   -0.42766E-02   -0.39424E+00  4500   0.426E+00    0.118E-01
DAV:   2    -0.128139454703E+03   -0.82871E-03   -0.12267E-02  4610   0.525E-01    0.957E-02
DAV:   3    -0.128139492687E+03   -0.37984E-04   -0.18628E-03  4750   0.679E-01    0.830E-02
DAV:   4    -0.128139401436E+03    0.91252E-04   -0.99417E-04  5040   0.731E-01    0.551E-02
DAV:   5    -0.128139252190E+03    0.14925E-03   -0.54458E-04  7940   0.504E-01    0.167E-02
DAV:   6    -0.128139247736E+03    0.44541E-05   -0.18159E-04  6390   0.146E-01    0.719E-03
DAV:   7    -0.128139251738E+03   -0.40016E-05   -0.57276E-05  4740   0.429E-02
  62 F= -.12813925E+03 E0= -.12809925E+03  d E =-.489712E-02
quench:  g(F)=  0.000E+00 g(S)=  0.000E+00 dE (1.order)= 0.000E+00
 bond charge predicted
       N       E                     dE             d eps       ncg     rms          rms(c)
DAV:   1    -0.128139178886E+03    0.68850E-04   -0.34160E-01  4500   0.110E+00    0.290E-02
DAV:   2    -0.128139360931E+03   -0.18205E-03   -0.19591E-03  5570   0.187E-01    0.288E-02
DAV:   3    -0.128139364092E+03   -0.31613E-05   -0.18598E-04  4960   0.188E-01    0.208E-02
DAV:   4    -0.128139358695E+03    0.53974E-05   -0.44324E-05  3530   0.139E-01
  63 F= -.12813936E+03 E0= -.12809941E+03  d E =-.106957E-03
quench:  g(F)=  0.000E+00 g(S)=  0.000E+00 dE (1.order)= 0.000E+00
 bond charge predicted
       N       E                     dE             d eps       ncg     rms          rms(c)
DAV:   1    -0.128136551071E+03    0.28130E-02   -0.17102E+00  4500   0.260E+00    0.670E-02
DAV:   2    -0.128137168252E+03   -0.61718E-03   -0.72095E-03  5740   0.350E-01    0.594E-02
DAV:   3    -0.128137185121E+03   -0.16869E-04   -0.76409E-04  4820   0.466E-01    0.523E-02
DAV:   4    -0.128137104981E+03    0.80140E-04   -0.22529E-04  5060   0.335E-01    0.297E-02
DAV:   5    -0.128137087490E+03    0.17491E-04   -0.19711E-04  6590   0.188E-01    0.154E-02
DAV:   6    -0.128137076634E+03    0.10855E-04   -0.86684E-05  4820   0.123E-01    0.712E-03
DAV:   7    -0.128137078892E+03   -0.22572E-05   -0.36390E-05  3960   0.298E-02
  64 F= -.12813708E+03 E0= -.12809720E+03  d E =0.227980E-02
quench:  g(F)=  0.000E+00 g(S)=  0.000E+00 dE (1.order)= 0.000E+00
 bond charge predicted
       N       E                     dE             d eps       ncg     rms          rms(c)
DAV:   1    -0.128131511156E+03    0.55655E-02   -0.46089E+00  4500   0.426E+00    0.104E-01
DAV:   2    -0.128133090148E+03   -0.15790E-02   -0.18862E-02  4590   0.392E-01    0.813E-02
DAV:   3    -0.128132956603E+03    0.13354E-03   -0.54303E-04  5050   0.240E-01    0.581E-02
DAV:   4    -0.128132948276E+03    0.83269E-05   -0.36483E-04  4960   0.451E-01    0.524E-02
DAV:   5    -0.128132905694E+03    0.42583E-04   -0.60602E-04  7820   0.546E-01    0.335E-02
DAV:   6    -0.128132823810E+03    0.81884E-04   -0.20851E-04  6010   0.277E-01    0.763E-03
DAV:   7    -0.128132829299E+03   -0.54887E-05   -0.76636E-05  4560   0.333E-02
  65 F= -.12813283E+03 E0= -.12809298E+03  d E =0.424959E-02
quench:  g(F)=  0.000E+00 g(S)=  0.000E+00 dE (1.order)= 0.000E+00
 bond charge predicted
       N       E                     dE             d eps       ncg     rms          rms(c)
DAV:   1    -0.128111637427E+03    0.21186E-01   -0.32388E+01  4500   0.114E+01    0.282E-01
DAV:   2    -0.128122685317E+03   -0.11048E-01   -0.13322E-01  4780   0.114E+00    0.233E-01
DAV:   3    -0.128121909314E+03    0.77600E-03   -0.56294E-03  4910   0.102E+00    0.171E-01
DAV:   4    -0.128121835020E+03    0.74293E-04   -0.33705E-03  5450   0.138E+00    0.145E-01
DAV:   5    -0.128121096055E+03    0.73896E-03   -0.41672E-03  8380   0.134E+00    0.776E-02
DAV:   6    -0.128120737637E+03    0.35842E-03   -0.16355E-03  7340   0.609E-01    0.222E-02
DAV:   7    -0.128120757465E+03   -0.19829E-04   -0.41817E-04  4780   0.119E-01    0.196E-02
DAV:   8    -0.128120754497E+03    0.29686E-05   -0.11889E-04  4720   0.763E-02    0.118E-02
DAV:   9    -0.128120751588E+03    0.29092E-05   -0.18831E-05  3200   0.386E-02
  66 F= -.12812075E+03 E0= -.12808092E+03  d E =0.120777E-01
quench:  g(F)=  0.000E+00 g(S)=  0.000E+00 dE (1.order)= 0.000E+00
 bond charge predicted
       N       E                     dE             d eps       ncg     rms          rms(c)
DAV:   1    -0.128038359411E+03    0.82395E-01   -0.18524E+02  4500   0.285E+01    0.769E-01
DAV:   2    -0.128099087258E+03   -0.60728E-01   -0.78169E-01  5160   0.398E+00    0.734E-01
DAV:   3    -0.128093580660E+03    0.55066E-02   -0.63641E-02  4920   0.385E+00    0.453E-01
DAV:   4    -0.128093194773E+03    0.38589E-03   -0.28738E-02  5780   0.377E+00    0.393E-01
DAV:   5    -0.128085581978E+03    0.76128E-02   -0.27260E-02  6860   0.347E+00    0.203E-01
DAV:   6    -0.128084819101E+03    0.76288E-03   -0.14050E-02  6690   0.131E+00    0.913E-02
DAV:   7    -0.128084798392E+03    0.20709E-04   -0.31707E-03  4900   0.461E-01    0.537E-02
DAV:   8    -0.128084820431E+03   -0.22039E-04   -0.13751E-03  4640   0.236E-01    0.379E-02
DAV:   9    -0.128084804495E+03    0.15936E-04   -0.27142E-04  4710   0.155E-01    0.219E-02
DAV:  10    -0.128084800768E+03    0.37274E-05   -0.53697E-05  4570   0.110E-01
  67 F= -.12808480E+03 E0= -.12804470E+03  d E =0.359508E-01
quench:  g(F)=  0.000E+00 g(S)=  0.000E+00 dE (1.order)= 0.000E+00
 bond charge predicted
       N       E                     dE             d eps       ncg     rms          rms(c)
DAV:   1    -0.128070995137E+03    0.13809E-01   -0.21091E+01  4500   0.973E+00    0.276E-01
DAV:   2    -0.128078721699E+03   -0.77266E-02   -0.95467E-02  4740   0.140E+00    0.240E-01
DAV:   3    -0.128078573884E+03    0.14781E-03   -0.10329E-02  4700   0.132E+00    0.173E-01
DAV:   4    -0.128078441825E+03    0.13206E-03   -0.32837E-03  5090   0.130E+00    0.119E-01
DAV:   5    -0.128077874617E+03    0.56721E-03   -0.31688E-03  5900   0.133E+00    0.688E-02
DAV:   6    -0.128077653185E+03    0.22143E-03   -0.12370E-03  7590   0.533E-01    0.153E-02
DAV:   7    -0.128077684161E+03   -0.30976E-04   -0.41749E-04  4810   0.907E-02    0.145E-02
DAV:   8    -0.128077682882E+03    0.12791E-05   -0.30791E-05  3780   0.397E-02
  68 F= -.12807768E+03 E0= -.12803821E+03  d E =0.711789E-02
quench:  g(F)=  0.000E+00 g(S)=  0.000E+00 dE (1.order)= 0.000E+00
 bond charge predicted
       N       E                     dE             d eps       ncg     rms          rms(c)
DAV:   1    -0.128081335112E+03   -0.36510E-02   -0.40864E+00  4500   0.431E+00    0.124E-01
DAV:   2    -0.128082982174E+03   -0.16471E-02   -0.20198E-02  4630   0.639E-01    0.107E-01
DAV:   3    -0.128082963386E+03    0.18788E-04   -0.19717E-03  4710   0.529E-01    0.742E-02
DAV:   4    -0.128082876245E+03    0.87141E-04   -0.44240E-04  4740   0.468E-01    0.439E-02
DAV:   5    -0.128082884509E+03   -0.82648E-05   -0.55783E-04  5130   0.578E-01    0.356E-02
DAV:   6    -0.128082792530E+03    0.91979E-04   -0.23433E-04  5580   0.322E-01    0.544E-03
DAV:   7    -0.128082799313E+03   -0.67824E-05   -0.93930E-05  5130   0.537E-02
  69 F= -.12808280E+03 E0= -.12804300E+03  d E =-.511643E-02
quench:  g(F)=  0.000E+00 g(S)=  0.000E+00 dE (1.order)= 0.000E+00
 bond charge predicted
       N       E                     dE             d eps       ncg     rms          rms(c)
DAV:   1    -0.128081208753E+03    0.15838E-02   -0.40574E-01  4630   0.131E+00    0.347E-02
DAV:   2    -0.128081314044E+03   -0.10529E-03   -0.14221E-03  4670   0.120E-01    0.266E-02
DAV:   3    -0.128081302257E+03    0.11786E-04   -0.75930E-05  5140   0.130E-01    0.211E-02
DAV:   4    -0.128081299889E+03    0.23689E-05   -0.61862E-05  3140   0.192E-01
  70 F= -.12808130E+03 E0= -.12804154E+03  d E =0.149942E-02
quench:  g(F)=  0.000E+00 g(S)=  0.000E+00 dE (1.order)= 0.000E+00
 bond charge predicted
       N       E                     dE             d eps       ncg     rms          rms(c)
DAV:   1    -0.128072388428E+03    0.89138E-02   -0.91621E+00  4500   0.634E+00    0.163E-01
DAV:   2    -0.128074454046E+03   -0.20656E-02   -0.28587E-02  4590   0.567E-01    0.123E-01
DAV:   3    -0.128074382616E+03    0.71431E-04   -0.21017E-03  5190   0.813E-01    0.111E-01
DAV:   4    -0.128074057609E+03    0.32501E-03   -0.15951E-03  5230   0.974E-01    0.666E-02
DAV:   5    -0.128073879777E+03    0.17783E-03   -0.10471E-03  8200   0.520E-01    0.301E-02
DAV:   6    -0.128073858336E+03    0.21442E-04   -0.29444E-04  6720   0.218E-01    0.135E-02
DAV:   7    -0.128073859263E+03   -0.92761E-06   -0.83784E-05  4650   0.603E-02
  71 F= -.12807386E+03 E0= -.12803419E+03  d E =0.744063E-02
quench:  g(F)=  0.000E+00 g(S)=  0.000E+00 dE (1.order)= 0.000E+00
 bond charge predicted
       N       E                     dE             d eps       ncg     rms          rms(c)
DAV:   1    -0.128051429438E+03    0.22429E-01   -0.34445E+01  4500   0.121E+01    0.306E-01
DAV:   2    -0.128061377236E+03   -0.99478E-02   -0.12723E-01  4560   0.115E+00    0.246E-01
DAV:   3    -0.128060372113E+03    0.10051E-02   -0.58138E-03  5050   0.104E+00    0.179E-01
DAV:   4    -0.128060373357E+03   -0.12442E-05   -0.41740E-03  5520   0.154E+00    0.146E-01
DAV:   5    -0.128059561666E+03    0.81169E-03   -0.51642E-03  8450   0.153E+00    0.834E-02
DAV:   6    -0.128059141252E+03    0.42041E-03   -0.16735E-03  7590   0.657E-01    0.209E-02
DAV:   7    -0.128059164359E+03   -0.23107E-04   -0.44466E-04  4700   0.105E-01    0.191E-02
DAV:   8    -0.128059161663E+03    0.26962E-05   -0.90483E-05  4670   0.650E-02
  72 F= -.12805916E+03 E0= -.12801959E+03  d E =0.146976E-01
quench:  g(F)=  0.000E+00 g(S)=  0.000E+00 dE (1.order)= 0.000E+00
 bond charge predicted
       N       E                     dE             d eps       ncg     rms          rms(c)
DAV:   1    -0.127986873774E+03    0.72291E-01   -0.15912E+02  4500   0.268E+01    0.735E-01
DAV:   2    -0.128032741400E+03   -0.45868E-01   -0.61709E-01  5060   0.391E+00    0.708E-01
DAV:   3    -0.128028036224E+03    0.47052E-02   -0.61667E-02  4980   0.378E+00    0.429E-01
DAV:   4    -0.128028805514E+03   -0.76929E-03   -0.29460E-02  5900   0.383E+00    0.380E-01
DAV:   5    -0.128020355683E+03    0.84498E-02   -0.25938E-02  6990   0.341E+00    0.176E-01
DAV:   6    -0.128020203046E+03    0.15264E-03   -0.12328E-02  6350   0.115E+00    0.904E-02
DAV:   7    -0.128020178889E+03    0.24158E-04   -0.28138E-03  4810   0.449E-01    0.458E-02
DAV:   8    -0.128020206218E+03   -0.27329E-04   -0.10768E-03  4710   0.210E-01    0.339E-02
DAV:   9    -0.128020193881E+03    0.12338E-04   -0.20384E-04  4680   0.142E-01    0.199E-02
DAV:  10    -0.128020190774E+03    0.31067E-05   -0.40042E-05  4120   0.102E-01
  73 F= -.12802019E+03 E0= -.12798091E+03  d E =0.389709E-01
quench:  g(F)=  0.000E+00 g(S)=  0.000E+00 dE (1.order)= 0.000E+00
 bond charge predicted
       N       E                     dE             d eps       ncg     rms          rms(c)
DAV:   1    -0.127985243828E+03    0.34950E-01   -0.40311E+02  4500   0.436E+01    0.127E+00
DAV:   2    -0.128120475040E+03   -0.13523E+00   -0.18035E+00  5640   0.845E+00    0.133E+00
DAV:   3    -0.128106808739E+03    0.13666E-01   -0.23569E-01  4890   0.858E+00    0.720E-01
DAV:   4    -0.128096440753E+03    0.10368E-01   -0.77958E-02  6180   0.590E+00    0.608E-01
DAV:   5    -0.128079009937E+03    0.17431E-01   -0.65629E-02  5740   0.450E+00    0.310E-01
DAV:   6    -0.128080442072E+03   -0.14321E-02   -0.39930E-02  5490   0.196E+00    0.239E-01
DAV:   7    -0.128079893546E+03    0.54853E-03   -0.11410E-02  4640   0.116E+00    0.762E-02
DAV:   8    -0.128079990413E+03   -0.96867E-04   -0.34128E-03  4700   0.306E-01    0.558E-02
DAV:   9    -0.128079978937E+03    0.11476E-04   -0.65374E-04  4660   0.267E-01    0.316E-02
DAV:  10    -0.128079968599E+03    0.10339E-04   -0.10788E-04  4750   0.157E-01    0.170E-02
DAV:  11    -0.128079970662E+03   -0.20636E-05   -0.58510E-05  4610   0.448E-02
  74 F= -.12807997E+03 E0= -.12804014E+03  d E =-.597799E-01
quench:  g(F)=  0.000E+00 g(S)=  0.000E+00 dE (1.order)= 0.000E+00
 bond charge predicted
       N       E                     dE             d eps       ncg     rms          rms(c)
DAV:   1    -0.128088453739E+03   -0.84851E-02   -0.11974E+01  4500   0.736E+00    0.194E-01
DAV:   2    -0.128090507405E+03   -0.20537E-02   -0.32089E-02  4610   0.711E-01    0.153E-01
DAV:   3    -0.128090339494E+03    0.16791E-03   -0.32655E-03  4860   0.999E-01    0.131E-01
DAV:   4    -0.128090083275E+03    0.25622E-03   -0.24645E-03  6160   0.118E+00    0.721E-02
DAV:   5    -0.128089707517E+03    0.37576E-03   -0.18573E-03  8340   0.784E-01    0.295E-02
DAV:   6    -0.128089668960E+03    0.38557E-04   -0.42208E-04  6870   0.263E-01    0.131E-02
DAV:   7    -0.128089676558E+03   -0.75989E-05   -0.13760E-04  4860   0.677E-02    0.109E-02
DAV:   8    -0.128089675594E+03    0.96436E-06   -0.22193E-05  2950   0.338E-02
  75 F= -.12808968E+03 E0= -.12804978E+03  d E =-.970493E-02
quench:  g(F)=  0.000E+00 g(S)=  0.000E+00 dE (1.order)= 0.000E+00
 bond charge predicted
       N       E                     dE             d eps       ncg     rms          rms(c)
DAV:   1    -0.128096814086E+03   -0.71375E-02   -0.80277E+00  4500   0.607E+00    0.162E-01
DAV:   2    -0.128097901139E+03   -0.10871E-02   -0.18977E-02  4810   0.567E-01    0.127E-01
DAV:   3    -0.128097799163E+03    0.10198E-03   -0.23357E-03  4930   0.865E-01    0.113E-01
DAV:   4    -0.128097605303E+03    0.19386E-03   -0.19208E-03  6780   0.103E+00    0.557E-02
DAV:   5    -0.128097336597E+03    0.26871E-03   -0.12328E-03  8440   0.640E-01    0.238E-02
DAV:   6    -0.128097318969E+03    0.17627E-04   -0.23487E-04  6410   0.190E-01    0.106E-02
DAV:   7    -0.128097323430E+03   -0.44605E-05   -0.81315E-05  4620   0.485E-02
  76 F= -.12809732E+03 E0= -.12805741E+03  d E =-.764784E-02
quench:  g(F)=  0.000E+00 g(S)=  0.000E+00 dE (1.order)= 0.000E+00
 bond charge predicted
       N       E                     dE             d eps       ncg     rms          rms(c)
DAV:   1    -0.128096401138E+03    0.91783E-03   -0.21185E-01  4500   0.894E-01    0.237E-02
DAV:   2    -0.128096485063E+03   -0.83925E-04   -0.99731E-04  4590   0.974E-02    0.187E-02
DAV:   3    -0.128096480013E+03    0.50495E-05   -0.45906E-05  4550   0.735E-02
  77 F= -.12809648E+03 E0= -.12805660E+03  d E =0.843416E-03
quench:  g(F)=  0.000E+00 g(S)=  0.000E+00 dE (1.order)= 0.000E+00
 bond charge predicted
       N       E                     dE             d eps       ncg     rms          rms(c)
DAV:   1    -0.128083198312E+03    0.13287E-01   -0.15909E+01  4500   0.813E+00    0.207E-01
DAV:   2    -0.128087748224E+03   -0.45499E-02   -0.58176E-02  4600   0.709E-01    0.159E-01
DAV:   3    -0.128087233648E+03    0.51458E-03   -0.20001E-03  4980   0.571E-01    0.118E-01
DAV:   4    -0.128087399094E+03   -0.16545E-03   -0.24345E-03  4960   0.118E+00    0.119E-01
DAV:   5    -0.128086750215E+03    0.64888E-03   -0.20945E-03  8340   0.976E-01    0.489E-02
DAV:   6    -0.128086692606E+03    0.57608E-04   -0.62747E-04  7250   0.382E-01    0.186E-02
DAV:   7    -0.128086690507E+03    0.20991E-05   -0.17867E-04  5030   0.122E-01    0.101E-02
DAV:   8    -0.128086690726E+03   -0.21854E-06   -0.34950E-05  3970   0.362E-02
  78 F= -.12808669E+03 E0= -.12804688E+03  d E =0.978929E-02
quench:  g(F)=  0.000E+00 g(S)=  0.000E+00 dE (1.order)= 0.000E+00
 bond charge predicted
       N       E                     dE             d eps       ncg     rms          rms(c)
DAV:   1    -0.128079764219E+03    0.69263E-02   -0.52490E+00  4500   0.469E+00    0.118E-01
DAV:   2    -0.128081217370E+03   -0.14532E-02   -0.18633E-02  4770   0.412E-01    0.898E-02
DAV:   3    -0.128081025487E+03    0.19188E-03   -0.59703E-04  4890   0.247E-01    0.618E-02
DAV:   4    -0.128081021018E+03    0.44689E-05   -0.52073E-04  5120   0.509E-01    0.577E-02
DAV:   5    -0.128080949270E+03    0.71748E-04   -0.65278E-04  6110   0.592E-01    0.370E-02
DAV:   6    -0.128080882505E+03    0.66765E-04   -0.26936E-04  6900   0.312E-01    0.821E-03
DAV:   7    -0.128080884733E+03   -0.22288E-05   -0.69556E-05  4620   0.556E-02
  79 F= -.12808088E+03 E0= -.12804108E+03  d E =0.580599E-02
quench:  g(F)=  0.000E+00 g(S)=  0.000E+00 dE (1.order)= 0.000E+00
 bond charge predicted
       N       E                     dE             d eps       ncg     rms          rms(c)
DAV:   1    -0.128067273680E+03    0.13609E-01   -0.15976E+01  4500   0.820E+00    0.205E-01
DAV:   2    -0.128071724242E+03   -0.44506E-02   -0.56868E-02  4670   0.737E-01    0.159E-01
DAV:   3    -0.128071177507E+03    0.54673E-03   -0.19535E-03  5070   0.547E-01    0.112E-01
DAV:   4    -0.128071184597E+03   -0.70903E-05   -0.16372E-03  5290   0.967E-01    0.939E-02
DAV:   5    -0.128070936764E+03    0.24783E-03   -0.23520E-03  8530   0.106E+00    0.573E-02
DAV:   6    -0.128070702804E+03    0.23396E-03   -0.71087E-04  7880   0.477E-01    0.128E-02
DAV:   7    -0.128070711789E+03   -0.89851E-05   -0.17103E-04  4760   0.622E-02    0.119E-02
DAV:   8    -0.128070711083E+03    0.70560E-06   -0.30760E-05  3320   0.352E-02
  80 F= -.12807071E+03 E0= -.12803093E+03  d E =0.101737E-01
quench:  g(F)=  0.000E+00 g(S)=  0.000E+00 dE (1.order)= 0.000E+00
 bond charge predicted
       N       E                     dE             d eps       ncg     rms          rms(c)
DAV:   1    -0.128060040829E+03    0.10671E-01   -0.11450E+01  4500   0.695E+00    0.175E-01
DAV:   2    -0.128063122050E+03   -0.30812E-02   -0.39782E-02  4620   0.629E-01    0.137E-01
DAV:   3    -0.128062761098E+03    0.36095E-03   -0.16132E-03  5120   0.561E-01    0.101E-01
DAV:   4    -0.128062782903E+03   -0.21805E-04   -0.14212E-03  5440   0.908E-01    0.825E-02
DAV:   5    -0.128062513505E+03    0.26940E-03   -0.17316E-03  8550   0.880E-01    0.457E-02
DAV:   6    -0.128062383469E+03    0.13004E-03   -0.50389E-04  7560   0.363E-01    0.115E-02
DAV:   7    -0.128062390603E+03   -0.71349E-05   -0.13479E-04  4710   0.481E-02    0.102E-02
DAV:   8    -0.128062389396E+03    0.12070E-05   -0.15287E-05  2990   0.266E-02
  81 F= -.12806239E+03 E0= -.12802270E+03  d E =0.832169E-02
quench:  g(F)=  0.000E+00 g(S)=  0.000E+00 dE (1.order)= 0.000E+00
 bond charge predicted
       N       E                     dE             d eps       ncg     rms          rms(c)
DAV:   1    -0.127958364491E+03    0.10403E+00   -0.19479E+02  4500   0.281E+01    0.739E-01
DAV:   2    -0.128040642661E+03   -0.82278E-01   -0.98076E-01  5420   0.384E+00    0.699E-01
DAV:   3    -0.128035967164E+03    0.46755E-02   -0.60576E-02  4930   0.370E+00    0.449E-01
DAV:   4    -0.128034131495E+03    0.18357E-02   -0.23265E-02  5530   0.339E+00    0.390E-01
DAV:   5    -0.128028670527E+03    0.54610E-02   -0.22211E-02  7310   0.296E+00    0.215E-01
DAV:   6    -0.128027316495E+03    0.13540E-02   -0.14241E-02  6610   0.136E+00    0.839E-02
DAV:   7    -0.128027367328E+03   -0.50833E-04   -0.33866E-03  4890   0.467E-01    0.580E-02
DAV:   8    -0.128027368304E+03   -0.97622E-06   -0.15760E-03  4650   0.279E-01    0.388E-02
DAV:   9    -0.128027355607E+03    0.12697E-04   -0.24736E-04  4730   0.159E-01    0.237E-02
DAV:  10    -0.128027349915E+03    0.56923E-05   -0.62512E-05  4600   0.116E-01
  82 F= -.12802735E+03 E0= -.12798782E+03  d E =0.350395E-01
quench:  g(F)=  0.000E+00 g(S)=  0.000E+00 dE (1.order)= 0.000E+00
 bond charge predicted
       N       E                     dE             d eps       ncg     rms          rms(c)
DAV:   1    -0.127972787436E+03    0.54568E-01   -0.86918E+01  4500   0.198E+01    0.550E-01
DAV:   2    -0.128000376457E+03   -0.27589E-01   -0.35254E-01  4920   0.301E+00    0.529E-01
DAV:   3    -0.127998757998E+03    0.16185E-02   -0.43631E-02  4930   0.295E+00    0.335E-01
DAV:   4    -0.127999243847E+03   -0.48585E-03   -0.16983E-02  5420   0.293E+00    0.287E-01
DAV:   5    -0.127994801369E+03    0.44425E-02   -0.13303E-02  6170   0.262E+00    0.115E-01
DAV:   6    -0.127994666674E+03    0.13470E-03   -0.63322E-03  6620   0.751E-01    0.456E-02
DAV:   7    -0.127994741848E+03   -0.75174E-04   -0.15926E-03  4800   0.203E-01    0.354E-02
DAV:   8    -0.127994729727E+03    0.12122E-04   -0.23602E-04  4650   0.119E-01    0.229E-02
DAV:   9    -0.127994717132E+03    0.12595E-04   -0.61084E-05  4290   0.550E-02    0.103E-02
[...]
 bond charge predicted
       N       E                     dE             d eps       ncg     rms          rms(c)
DAV:   1    -0.127727494898E+03    0.20337E-03   -0.44448E-02  4600   0.418E-01    0.101E-02
DAV:   2    -0.127727515071E+03   -0.20173E-04   -0.19646E-04  5510   0.101E-01    0.112E-02
DAV:   3    -0.127727512882E+03    0.21888E-05   -0.42544E-05  3510   0.110E-01
 142 F= -.12772751E+03 E0= -.12768794E+03  d E =0.185682E-03
quench:  g(F)=  0.000E+00 g(S)=  0.000E+00 dE (1.order)= 0.000E+00
 bond charge predicted
       N       E                     dE             d eps       ncg     rms          rms(c)
DAV:   1    -0.127715348537E+03    0.12167E-01   -0.26395E+01  4500   0.104E+01    0.268E-01
DAV:   2    -0.127723914475E+03   -0.85659E-02   -0.10656E-01  4720   0.104E+00    0.217E-01
DAV:   3    -0.127723127008E+03    0.78747E-03   -0.47922E-03  4880   0.842E-01    0.156E-01
DAV:   4    -0.127722944175E+03    0.18283E-03   -0.28933E-03  5370   0.117E+00    0.124E-01
DAV:   5    -0.127722769378E+03    0.17480E-03   -0.46737E-03  7960   0.140E+00    0.994E-02
DAV:   6    -0.127722180501E+03    0.58888E-03   -0.17757E-03  8000   0.738E-01    0.172E-02
DAV:   7    -0.127722207931E+03   -0.27430E-04   -0.41805E-04  4740   0.699E-02    0.152E-02
DAV:   8    -0.127722204600E+03    0.33311E-05   -0.23182E-05  3230   0.292E-02
 143 F= -.12772220E+03 E0= -.12768249E+03  d E =0.530828E-02
quench:  g(F)=  0.000E+00 g(S)=  0.000E+00 dE (1.order)= 0.000E+00
 bond charge predicted
       N       E                     dE             d eps       ncg     rms          rms(c)
DAV:   1    -0.127709490645E+03    0.12717E-01   -0.29192E+01  4500   0.116E+01    0.328E-01
DAV:   2    -0.127716266824E+03   -0.67762E-02   -0.96960E-02  4800   0.154E+00    0.291E-01
DAV:   3    -0.127715792036E+03    0.47479E-03   -0.13217E-02  4780   0.162E+00    0.205E-01
DAV:   4    -0.127716189429E+03   -0.39739E-03   -0.76834E-03  6010   0.187E+00    0.167E-01
DAV:   5    -0.127714355548E+03    0.18339E-02   -0.63858E-03  8120   0.162E+00    0.568E-02
DAV:   6    -0.127714308220E+03    0.47328E-04   -0.14023E-03  6790   0.414E-01    0.248E-02
DAV:   7    -0.127714332662E+03   -0.24442E-04   -0.44806E-04  4730   0.107E-01    0.159E-02
DAV:   8    -0.127714330663E+03    0.19986E-05   -0.46513E-05  4540   0.545E-02
 144 F= -.12771433E+03 E0= -.12767467E+03  d E =0.787394E-02
quench:  g(F)=  0.000E+00 g(S)=  0.000E+00 dE (1.order)= 0.000E+00
 bond charge predicted
       N       E                     dE             d eps       ncg     rms          rms(c)
DAV:   1    -0.127713696096E+03    0.63657E-03   -0.97161E+00  4500   0.670E+00    0.198E-01
DAV:   2    -0.127717680872E+03   -0.39848E-02   -0.48787E-02  4760   0.104E+00    0.172E-01
DAV:   3    -0.127717684032E+03   -0.31592E-05   -0.56066E-03  4870   0.856E-01    0.116E-01
DAV:   4    -0.127717339500E+03    0.34453E-03   -0.62745E-04  4940   0.463E-01    0.405E-02
DAV:   5    -0.127717554584E+03   -0.21508E-03   -0.94991E-04  5650   0.670E-01    0.602E-02
DAV:   6    -0.127717306194E+03    0.24839E-03   -0.62987E-04  6490   0.530E-01    0.902E-03
DAV:   7    -0.127717315600E+03   -0.94056E-05   -0.13489E-04  5320   0.700E-02    0.838E-03
DAV:   8    -0.127717316770E+03   -0.11700E-05   -0.29176E-05  3390   0.390E-02
 145 F= -.12771732E+03 E0= -.12767730E+03  d E =-.298611E-02
quench:  g(F)=  0.000E+00 g(S)=  0.000E+00 dE (1.order)= 0.000E+00
 bond charge predicted
       N       E                     dE             d eps       ncg     rms          rms(c)
DAV:   1    -0.127717474968E+03   -0.15937E-03   -0.13647E+00  4500   0.250E+00    0.749E-02
DAV:   2    -0.127718061495E+03   -0.58653E-03   -0.70986E-03  4570   0.412E-01    0.658E-02
DAV:   3    -0.127718084990E+03   -0.23496E-04   -0.94398E-04  4800   0.393E-01    0.474E-02
DAV:   4    -0.127718102240E+03   -0.17250E-04   -0.38569E-04  4760   0.424E-01    0.362E-02
DAV:   5    -0.127718028176E+03    0.74064E-04   -0.24999E-04  3800   0.351E-01    0.143E-02
DAV:   6    -0.127718020454E+03    0.77228E-05   -0.55682E-05  3720   0.103E-01
 146 F= -.12771802E+03 E0= -.12767814E+03  d E =-.703684E-03
quench:  g(F)=  0.000E+00 g(S)=  0.000E+00 dE (1.order)= 0.000E+00
 bond charge predicted
       N       E                     dE             d eps       ncg     rms          rms(c)
DAV:   1    -0.127718013476E+03    0.14701E-04   -0.71260E-02  4600   0.573E-01    0.174E-02
DAV:   2    -0.127718026133E+03   -0.12657E-04   -0.20928E-04  4840   0.797E-02    0.148E-02
DAV:   3    -0.127718028376E+03   -0.22434E-05   -0.50830E-05  4380   0.122E-01
 147 F= -.12771803E+03 E0= -.12767813E+03  d E =-.792236E-05
quench:  g(F)=  0.000E+00 g(S)=  0.000E+00 dE (1.order)= 0.000E+00
 bond charge predicted
       N       E                     dE             d eps       ncg     rms          rms(c)
DAV:   1    -0.127712776184E+03    0.52499E-02   -0.17828E+01  4500   0.910E+00    0.260E-01
DAV:   2    -0.127715916194E+03   -0.31400E-02   -0.50895E-02  4740   0.119E+00    0.230E-01
DAV:   3    -0.127715524965E+03    0.39123E-03   -0.79392E-03  4810   0.122E+00    0.159E-01
DAV:   4    -0.127715727984E+03   -0.20302E-03   -0.46846E-03  7440   0.136E+00    0.127E-01
DAV:   5    -0.127714657359E+03    0.10706E-02   -0.36814E-03  7330   0.125E+00    0.475E-02
DAV:   6    -0.127714621126E+03    0.36233E-04   -0.70289E-04  6290   0.304E-01    0.194E-02
DAV:   7    -0.127714635106E+03   -0.13979E-04   -0.24685E-04  4780   0.820E-02    0.121E-02
DAV:   8    -0.127714634619E+03    0.48698E-06   -0.30798E-05  3320   0.455E-02
 148 F= -.12771463E+03 E0= -.12767455E+03  d E =0.339376E-02
quench:  g(F)=  0.000E+00 g(S)=  0.000E+00 dE (1.order)= 0.000E+00
 bond charge predicted
       N       E                     dE             d eps       ncg     rms          rms(c)
DAV:   1    -0.127696007301E+03    0.18628E-01   -0.28735E+01  4500   0.116E+01    0.350E-01
DAV:   2    -0.127706683560E+03   -0.10676E-01   -0.13188E-01  4680   0.206E+00    0.343E-01
DAV:   3    -0.127706731590E+03   -0.48030E-04   -0.22625E-02  4840   0.199E+00    0.216E-01
DAV:   4    -0.127707820235E+03   -0.10886E-02   -0.10258E-02  5030   0.217E+00    0.216E-01
DAV:   5    -0.127705385589E+03    0.24346E-02   -0.64643E-03  5910   0.173E+00    0.478E-02
DAV:   6    -0.127705398426E+03   -0.12837E-04   -0.17373E-03  6620   0.384E-01    0.235E-02
DAV:   7    -0.127705431141E+03   -0.32715E-04   -0.65283E-04  4660   0.181E-01    0.254E-02
DAV:   8    -0.127705432874E+03   -0.17330E-05   -0.11511E-04  4760   0.703E-02    0.187E-02
DAV:   9    -0.127705424415E+03    0.84591E-05   -0.22791E-05  2840   0.568E-02
 149 F= -.12770542E+03 E0= -.12766553E+03  d E =0.921020E-02
quench:  g(F)=  0.000E+00 g(S)=  0.000E+00 dE (1.order)= 0.000E+00
 bond charge predicted
       N       E                     dE             d eps       ncg     rms          rms(c)
DAV:   1    -0.127711969672E+03   -0.65368E-02   -0.32662E+00  4600   0.388E+00    0.117E-01
DAV:   2    -0.127713278195E+03   -0.13085E-02   -0.15938E-02  4750   0.617E-01    0.100E-01
DAV:   3    -0.127713321727E+03   -0.43532E-04   -0.22874E-03  4870   0.579E-01    0.759E-02
DAV:   4    -0.127713323406E+03   -0.16793E-05   -0.85475E-04  4750   0.609E-01    0.618E-02
DAV:   5    -0.127713201274E+03    0.12213E-03   -0.61589E-04  4990   0.563E-01    0.208E-02
DAV:   6    -0.127713163319E+03    0.37956E-04   -0.15875E-04  4200   0.209E-01    0.805E-03
DAV:   7    -0.127713168664E+03   -0.53454E-05   -0.11127E-04  5680   0.782E-02    0.726E-03
DAV:   8    -0.127713169906E+03   -0.12417E-05   -0.20760E-05  2860   0.223E-02
 150 F= -.12771317E+03 E0= -.12767317E+03  d E =-.774549E-02
quench:  g(F)=  0.000E+00 g(S)=  0.000E+00 dE (1.order)= 0.000E+00
 bond charge predicted
       N       E                     dE             d eps       ncg     rms          rms(c)
DAV:   1    -0.127714679731E+03   -0.15111E-02   -0.10158E+00  4500   0.218E+00    0.652E-02
DAV:   2    -0.127715049991E+03   -0.37026E-03   -0.45166E-03  4540   0.347E-01    0.571E-02
DAV:   3    -0.127715070292E+03   -0.20301E-04   -0.74052E-04  4790   0.360E-01    0.445E-02
DAV:   4    -0.127715085370E+03   -0.15079E-04   -0.37152E-04  5020   0.411E-01    0.398E-02
DAV:   5    -0.127715014853E+03    0.70517E-04   -0.18985E-04  3550   0.314E-01    0.914E-03
DAV:   6    -0.127715010272E+03    0.45817E-05   -0.31299E-05  3030   0.777E-02
 151 F= -.12771501E+03 E0= -.12767495E+03  d E =-.184037E-02
quench:  g(F)=  0.000E+00 g(S)=  0.000E+00 dE (1.order)= 0.000E+00
 bond charge predicted
       N       E                     dE             d eps       ncg     rms          rms(c)
DAV:   1    -0.127715253507E+03   -0.23865E-03   -0.39640E-01  4520   0.136E+00    0.391E-02
DAV:   2    -0.127715376645E+03   -0.12314E-03   -0.15420E-03  4820   0.209E-01    0.351E-02
DAV:   3    -0.127715381674E+03   -0.50289E-05   -0.25899E-04  4910   0.215E-01    0.267E-02
DAV:   4    -0.127715393958E+03   -0.12283E-04   -0.14954E-04  4640   0.266E-01    0.266E-02
DAV:   5    -0.127715359143E+03    0.34815E-04   -0.73199E-05  2980   0.193E-01    0.715E-03
DAV:   6    -0.127715358698E+03    0.44510E-06   -0.12487E-05  2740   0.340E-02
 152 F= -.12771536E+03 E0= -.12767525E+03  d E =-.348426E-03
quench:  g(F)=  0.000E+00 g(S)=  0.000E+00 dE (1.order)= 0.000E+00
 bond charge predicted
       N       E                     dE             d eps       ncg     rms          rms(c)
DAV:   1    -0.127714562954E+03    0.79619E-03   -0.20271E+00  4500   0.307E+00    0.868E-02
DAV:   2    -0.127715011324E+03   -0.44837E-03   -0.64459E-03  4810   0.384E-01    0.713E-02
DAV:   3    -0.127714985368E+03    0.25956E-04   -0.87917E-04  4870   0.383E-01    0.572E-02
DAV:   4    -0.127714942402E+03    0.42966E-04   -0.36201E-04  5440   0.381E-01    0.396E-02
DAV:   5    -0.127714902023E+03    0.40379E-04   -0.29993E-04  6010   0.368E-01    0.141E-02
DAV:   6    -0.127714885137E+03    0.16886E-04   -0.55550E-05  2840   0.128E-01    0.892E-03
DAV:   7    -0.127714888448E+03   -0.33113E-05   -0.62861E-05  4340   0.576E-02
 153 F= -.12771489E+03 E0= -.12767469E+03  d E =0.470250E-03
quench:  g(F)=  0.000E+00 g(S)=  0.000E+00 dE (1.order)= 0.000E+00
 bond charge predicted
       N       E                     dE             d eps       ncg     rms          rms(c)
DAV:   1    -0.127714093314E+03    0.79182E-03   -0.38847E+00  4500   0.425E+00    0.118E-01
DAV:   2    -0.127714560349E+03   -0.46704E-03   -0.89953E-03  4620   0.406E-01    0.896E-02
DAV:   3    -0.127714418776E+03    0.14157E-03   -0.11114E-03  4990   0.463E-01    0.757E-02
DAV:   4    -0.127714272208E+03    0.14657E-03   -0.50951E-04  6470   0.309E-01    0.154E-02
DAV:   5    -0.127714285443E+03   -0.13236E-04   -0.10584E-04  5220   0.175E-01    0.162E-02
DAV:   6    -0.127714271343E+03    0.14100E-04   -0.52593E-05  2910   0.142E-01    0.713E-03
DAV:   7    -0.127714272164E+03   -0.82106E-06   -0.24871E-05  2780   0.313E-02
 154 F= -.12771427E+03 E0= -.12767397E+03  d E =0.616284E-03
quench:  g(F)=  0.000E+00 g(S)=  0.000E+00 dE (1.order)= 0.000E+00
 bond charge predicted
       N       E                     dE             d eps       ncg     rms          rms(c)
DAV:   1    -0.127704790285E+03    0.94811E-02   -0.27324E+01  4500   0.113E+01    0.332E-01
DAV:   2    -0.127709666839E+03   -0.48766E-02   -0.80266E-02  4710   0.152E+00    0.285E-01
DAV:   3    -0.127709201766E+03    0.46507E-03   -0.13546E-02  4840   0.159E+00    0.205E-01
DAV:   4    -0.127709766168E+03   -0.56440E-03   -0.78947E-03  6100   0.185E+00    0.161E-01
DAV:   5    -0.127707832919E+03    0.19332E-02   -0.62834E-03  7530   0.159E+00    0.606E-02
DAV:   6    -0.127707818478E+03    0.14441E-04   -0.13128E-03  6220   0.364E-01    0.269E-02
DAV:   7    -0.127707834529E+03   -0.16051E-04   -0.40183E-04  4900   0.109E-01    0.143E-02
DAV:   8    -0.127707833994E+03    0.53475E-06   -0.55057E-05  4620   0.617E-02
 155 F= -.12770783E+03 E0= -.12766762E+03  d E =0.643817E-02
quench:  g(F)=  0.000E+00 g(S)=  0.000E+00 dE (1.order)= 0.000E+00
 bond charge predicted
       N       E                     dE             d eps       ncg     rms          rms(c)
DAV:   1    -0.127708622390E+03   -0.78786E-03   -0.11756E+01  4500   0.718E+00    0.218E-01
DAV:   2    -0.127714190586E+03   -0.55682E-02   -0.67571E-02  4630   0.113E+00    0.174E-01
DAV:   3    -0.127714356071E+03   -0.16548E-03   -0.66989E-03  4730   0.104E+00    0.128E-01
DAV:   4    -0.127714383209E+03   -0.27138E-04   -0.28593E-03  4970   0.113E+00    0.102E-01
DAV:   5    -0.127714024538E+03    0.35867E-03   -0.18713E-03  5100   0.949E-01    0.549E-02
DAV:   6    -0.127713900375E+03    0.12416E-03   -0.59128E-04  7620   0.355E-01    0.112E-02
DAV:   7    -0.127713912896E+03   -0.12521E-04   -0.19802E-04  4730   0.102E-01    0.119E-02
DAV:   8    -0.127713913651E+03   -0.75521E-06   -0.48636E-05  4690   0.592E-02
 156 F= -.12771391E+03 E0= -.12767336E+03  d E =-.607966E-02
quench:  g(F)=  0.000E+00 g(S)=  0.000E+00 dE (1.order)= 0.000E+00
 bond charge predicted
       N       E                     dE             d eps       ncg     rms          rms(c)
DAV:   1    -0.127714659907E+03   -0.74701E-03   -0.52922E-01  4580   0.152E+00    0.463E-02
DAV:   2    -0.127714908120E+03   -0.24821E-03   -0.30097E-03  4560   0.244E-01    0.375E-02
DAV:   3    -0.127714914667E+03   -0.65469E-05   -0.34301E-04  4620   0.200E-01    0.269E-02
DAV:   4    -0.127714902226E+03    0.12441E-04   -0.49820E-05  4610   0.127E-01    0.132E-02
DAV:   5    -0.127714917678E+03   -0.15452E-04   -0.76921E-05  3000   0.192E-01    0.181E-02
DAV:   6    -0.127714896677E+03    0.21001E-04   -0.41924E-05  2750   0.143E-01    0.173E-03
DAV:   7    -0.127714897671E+03   -0.99427E-06   -0.12646E-05  2820   0.157E-02
 157 F= -.12771490E+03 E0= -.12767443E+03  d E =-.984020E-03
quench:  g(F)=  0.000E+00 g(S)=  0.000E+00 dE (1.order)= 0.000E+00
 bond charge predicted
       N       E                     dE             d eps       ncg     rms          rms(c)
DAV:   1    -0.127715073300E+03   -0.17662E-03   -0.31088E-01  4500   0.120E+00    0.334E-02
DAV:   2    -0.127715127806E+03   -0.54506E-04   -0.85206E-04  4530   0.127E-01    0.253E-02
DAV:   3    -0.127715129130E+03   -0.13242E-05   -0.11988E-04  4940   0.185E-01    0.255E-02
DAV:   4    -0.127715119948E+03    0.91818E-05   -0.95368E-05  2840   0.216E-01
 158 F= -.12771512E+03 E0= -.12767465E+03  d E =-.222277E-03
quench:  g(F)=  0.000E+00 g(S)=  0.000E+00 dE (1.order)= 0.000E+00
 bond charge predicted
       N       E                     dE             d eps       ncg     rms          rms(c)
DAV:   1    -0.127715278003E+03   -0.14887E-03   -0.19924E+00  4500   0.305E+00    0.842E-02
DAV:   2    -0.127715510720E+03   -0.23272E-03   -0.44221E-03  4660   0.353E-01    0.673E-02
DAV:   3    -0.127715567452E+03   -0.56732E-04   -0.10492E-03  4770   0.585E-01    0.672E-02
DAV:   4    -0.127715435570E+03    0.13188E-03   -0.71002E-04  7340   0.548E-01    0.272E-02
DAV:   5    -0.127715371097E+03    0.64473E-04   -0.26369E-04  5840   0.252E-01    0.140E-02
DAV:   6    -0.127715375692E+03   -0.45947E-05   -0.11364E-04  5080   0.802E-02    0.671E-03
DAV:   7    -0.127715376393E+03   -0.70145E-06   -0.19363E-05  2800   0.266E-02
 159 F= -.12771538E+03 E0= -.12767490E+03  d E =-.256445E-03
quench:  g(F)=  0.000E+00 g(S)=  0.000E+00 dE (1.order)= 0.000E+00
 bond charge predicted
       N       E                     dE             d eps       ncg     rms          rms(c)
DAV:   1    -0.127713950413E+03    0.14253E-02   -0.27786E+01  4510   0.113E+01    0.312E-01
DAV:   2    -0.127719012093E+03   -0.50617E-02   -0.80092E-02  4800   0.124E+00    0.256E-01
DAV:   3    -0.127718501298E+03    0.51079E-03   -0.98563E-03  4940   0.154E+00    0.202E-01
DAV:   4    -0.127718492956E+03    0.83425E-05   -0.75891E-03  6150   0.186E+00    0.151E-01
DAV:   5    -0.127717054597E+03    0.14384E-02   -0.58529E-03  8510   0.147E+00    0.546E-02
DAV:   6    -0.127716984134E+03    0.70463E-04   -0.12279E-03  6670   0.412E-01    0.226E-02
DAV:   7    -0.127717004186E+03   -0.20052E-04   -0.38945E-04  4800   0.979E-02    0.151E-02
DAV:   8    -0.127717001968E+03    0.22174E-05   -0.46024E-05  4460   0.568E-02
 160 F= -.12771700E+03 E0= -.12767644E+03  d E =-.162558E-02
quench:  g(F)=  0.000E+00 g(S)=  0.000E+00 dE (1.order)= 0.000E+00
 bond charge predicted
       N       E                     dE             d eps       ncg     rms          rms(c)
DAV:   1    -0.127713953599E+03    0.30506E-02   -0.30149E+01  4510   0.116E+01    0.313E-01
DAV:   2    -0.127721075530E+03   -0.71219E-02   -0.10050E-01  4790   0.124E+00    0.256E-01
DAV:   3    -0.127720274224E+03    0.80131E-03   -0.84160E-03  4990   0.134E+00    0.194E-01
DAV:   4    -0.127720226415E+03    0.47810E-04   -0.62151E-03  6160   0.169E+00    0.142E-01
DAV:   5    -0.127719144389E+03    0.10820E-02   -0.62004E-03  8380   0.153E+00    0.751E-02
DAV:   6    -0.127718885222E+03    0.25917E-03   -0.14812E-03  7390   0.569E-01    0.205E-02
DAV:   7    -0.127718912622E+03   -0.27400E-04   -0.45870E-04  4710   0.105E-01    0.164E-02
DAV:   8    -0.127718910646E+03    0.19766E-05   -0.56502E-05  4690   0.555E-02
 161 F= -.12771891E+03 E0= -.12767817E+03  d E =-.190868E-02
quench:  g(F)=  0.000E+00 g(S)=  0.000E+00 dE (1.order)= 0.000E+00
 bond charge predicted
       N       E                     dE             d eps       ncg     rms          rms(c)
DAV:   1    -0.127718038552E+03    0.87407E-03   -0.79567E+00  4500   0.610E+00    0.174E-01
DAV:   2    -0.127719157149E+03   -0.11186E-02   -0.20186E-02  4500   0.694E-01    0.143E-01
DAV:   3    -0.127718962507E+03    0.19464E-03   -0.33083E-03  4640   0.740E-01    0.113E-01
DAV:   4    -0.127718621575E+03    0.34093E-03   -0.11955E-03  6850   0.398E-01    0.473E-02
DAV:   5    -0.127718638988E+03   -0.17413E-04   -0.43613E-04  4940   0.442E-01    0.330E-02
DAV:   6    -0.127718577167E+03    0.61821E-04   -0.20663E-04  5470   0.274E-01    0.151E-02
DAV:   7    -0.127718576367E+03    0.80028E-06   -0.76833E-05  4560   0.705E-02
 162 F= -.12771858E+03 E0= -.12767774E+03  d E =0.334279E-03
quench:  g(F)=  0.000E+00 g(S)=  0.000E+00 dE (1.order)= 0.000E+00
 bond charge predicted
       N       E                     dE             d eps       ncg     rms          rms(c)
DAV:   1    -0.127718391129E+03    0.18604E-03   -0.16870E+00  4500   0.281E+00    0.809E-02
DAV:   2    -0.127718872396E+03   -0.48127E-03   -0.63458E-03  4810   0.396E-01    0.698E-02
DAV:   3    -0.127718880060E+03   -0.76639E-05   -0.89551E-04  4880   0.422E-01    0.548E-02
DAV:   4    -0.127718900308E+03   -0.20248E-04   -0.56487E-04  4910   0.512E-01    0.479E-02
DAV:   5    -0.127718787161E+03    0.11315E-03   -0.32894E-04  5980   0.387E-01    0.129E-02
DAV:   6    -0.127718782749E+03    0.44116E-05   -0.50639E-05  3620   0.816E-02
 163 F= -.12771878E+03 E0= -.12767802E+03  d E =-.206382E-03
quench:  g(F)=  0.000E+00 g(S)=  0.000E+00 dE (1.order)= 0.000E+00
 bond charge predicted
       N       E                     dE             d eps       ncg     rms          rms(c)
DAV:   1    -0.127719043755E+03   -0.25659E-03   -0.58693E-01  4500   0.160E+00    0.449E-02
DAV:   2    -0.127719227942E+03   -0.18419E-03   -0.23861E-03  4790   0.198E-01    0.362E-02
DAV:   3    -0.127719218955E+03    0.89867E-05   -0.22264E-04  4960   0.180E-01    0.282E-02
DAV:   4    -0.127719204342E+03    0.14612E-04   -0.70597E-05  4620   0.174E-01    0.161E-02
DAV:   5    -0.127719208655E+03   -0.43125E-05   -0.10326E-04  3130   0.221E-01    0.162E-02
DAV:   6    -0.127719192330E+03    0.16325E-04   -0.40537E-05  2730   0.129E-01    0.255E-03
DAV:   7    -0.127719194674E+03   -0.23443E-05   -0.25905E-05  3040   0.218E-02
 164 F= -.12771919E+03 E0= -.12767842E+03  d E =-.411925E-03
quench:  g(F)=  0.000E+00 g(S)=  0.000E+00 dE (1.order)= 0.000E+00
 reached required accuracy - stopping structural energy minimisation
