<?xml version="1.0" encoding="ISO-8859-1"?>
<modeling>
 <generator>
  <i name="program" type="string">vasp </i>
  <i name="version" type="string">5.4.1  </i>
  <i name="subversion" type="string">05Feb16 (build Nov 22 2018 20:17:51) complex                          parallel </i>
  <i name="platform" type="string">IFC91_ompi </i>
  <i name="date" type="string">2018 11 23 </i>
  <i name="time" type="string">12:57:58 </i>
 </generator>
 <incar>
  <i type="int" name="ISTART">     0</i>
  <i type="string" name="PREC">normal</i>
  <i type="int" name="NELM">   400</i>
  <i type="int" name="IBRION">     3</i>
  <i name="EDIFF">      0.00001000</i>
  <i name="EDIFFG">     -0.02000000</i>
  <i type="int" name="NSW">   500</i>
  <i type="int" name="ISIF">     2</i>
  <i name="ENCUT">    500.00000000</i>
  <i name="POTIM">      0.00000000</i>
  <i type="string" name="LREAL">Auto</i>
  <i type="int" name="ISMEAR">     0</i>
  <i name="SIGMA">      0.10000000</i>
  <i type="logical" name="LWAVE"> F  </i>
  <i type="logical" name="LCHARG"> F  </i>
  <v type="int" name="KPOINT_BSE">    -1     0     0     0</v>
  <i type="int" name="NELM">   400</i>
  <i type="logical" name="LDIPOL"> T  </i>
  <i type="int" name="IDIPOL">     3</i>
 </incar>
 <kpoints>
  <generation param="Gamma">
   <v type="int" name="divisions">       5        5        1 </v>
   <v name="usershift">      0.00000000       0.00000000       0.00000000 </v>
   <v name="genvec1">      0.20000000       0.00000000       0.00000000 </v>
   <v name="genvec2">      0.00000000       0.20000000       0.00000000 </v>
   <v name="genvec3">      0.00000000       0.00000000       1.00000000 </v>
   <v name="shift">      0.00000000       0.00000000       0.00000000 </v>
  </generation>
  <varray name="kpointlist" >
   <v>       0.00000000       0.00000000       0.00000000 </v>
   <v>       0.20000000      -0.00000000       0.00000000 </v>
   <v>       0.40000000      -0.00000000       0.00000000 </v>
   <v>       0.20000000       0.20000000       0.00000000 </v>
   <v>       0.40000000       0.20000000       0.00000000 </v>
   <v>      -0.40000000       0.20000000       0.00000000 </v>
   <v>      -0.20000000       0.20000000       0.00000000 </v>
   <v>       0.40000000       0.40000000       0.00000000 </v>
   <v>      -0.40000000       0.40000000       0.00000000 </v>
  </varray>
  <varray name="weights" >
   <v>       0.04000000 </v>
   <v>       0.16000000 </v>
   <v>       0.16000000 </v>
   <v>       0.08000000 </v>
   <v>       0.16000000 </v>
   <v>       0.16000000 </v>
   <v>       0.08000000 </v>
   <v>       0.08000000 </v>
   <v>       0.08000000 </v>
  </varray>
 </kpoints>
 <parameters>
  <separator name="general" >
   <i type="string" name="SYSTEM">unknown system</i>
   <i type="logical" name="LCOMPAT"> F  </i>
  </separator>
  <separator name="electronic" >
   <i type="string" name="PREC">normal</i>
   <i name="ENMAX">    500.00000000</i>
   <i name="ENAUG">    516.45600000</i>
   <i name="EDIFF">      0.00001000</i>
   <i type="int" name="IALGO">    38</i>
   <i type="int" name="IWAVPR">    11</i>
   <i type="int" name="NBANDS">   250</i>
   <i name="NELECT">    407.00000000</i>
   <i type="int" name="TURBO">     0</i>
   <i type="int" name="IRESTART">     0</i>
   <i type="int" name="NREBOOT">     0</i>
   <i type="int" name="NMIN">     0</i>
   <i name="EREF">      0.00000000</i>
   <separator name="electronic smearing" >
    <i type="int" name="ISMEAR">     0</i>
    <i name="SIGMA">      0.10000000</i>
    <i name="KSPACING">      0.50000000</i>
    <i type="logical" name="KGAMMA"> T  </i>
   </separator>
   <separator name="electronic projectors" >
    <i type="logical" name="LREAL"> T  </i>
    <v name="ROPT">     -0.00050000     -0.00050000</v>
    <i type="int" name="LMAXPAW">  -100</i>
    <i type="int" name="LMAXMIX">     2</i>
    <i type="logical" name="NLSPLINE"> F  </i>
   </separator>
   <separator name="electronic startup" >
    <i type="int" name="ISTART">     0</i>
    <i type="int" name="ICHARG">     2</i>
    <i type="int" name="INIWAV">     1</i>
   </separator>
   <separator name="electronic spin" >
    <i type="int" name="ISPIN">     1</i>
    <i type="logical" name="LNONCOLLINEAR"> F  </i>
    <v name="MAGMOM">      1.00000000      1.00000000      1.00000000      1.00000000      1.00000000      1.00000000      1.00000000      1.00000000      1.00000000      1.00000000      1.00000000      1.00000000      1.00000000      1.00000000      1.00000000      1.00000000      1.00000000      1.00000000      1.00000000      1.00000000
      1.00000000      1.00000000      1.00000000      1.00000000      1.00000000      1.00000000      1.00000000      1.00000000      1.00000000      1.00000000      1.00000000      1.00000000      1.00000000      1.00000000      1.00000000      1.00000000      1.00000000</v>
    <i name="NUPDOWN">     -1.00000000</i>
    <i type="logical" name="LSORBIT"> F  </i>
    <v name="SAXIS">      0.00000000      0.00000000      1.00000000</v>
    <i type="logical" name="LSPIRAL"> F  </i>
    <v name="QSPIRAL">      0.00000000      0.00000000      0.00000000</v>
    <i type="logical" name="LZEROZ"> F  </i>
   </separator>
   <separator name="electronic exchange-correlation" >
    <i type="logical" name="LASPH"> F  </i>
    <i type="logical" name="LMETAGGA"> F  </i>
   </separator>
   <separator name="electronic convergence" >
    <i type="int" name="NELM">   400</i>
    <i type="int" name="NELMDL">    -5</i>
    <i type="int" name="NELMIN">     2</i>
    <i name="ENINI">    500.00000000</i>
    <separator name="electronic convergence detail" >
     <i type="logical" name="LDIAG"> T  </i>
     <i type="logical" name="LSUBROT"> F  </i>
     <i name="WEIMIN">      0.00100000</i>
     <i name="EBREAK">      0.00000001</i>
     <i name="DEPER">      0.30000000</i>
     <i type="int" name="NRMM">     4</i>
     <i name="TIME">      0.40000000</i>
    </separator>
   </separator>
   <separator name="electronic mixer" >
    <i name="AMIX">      0.40000000</i>
    <i name="BMIX">      1.00000000</i>
    <i name="AMIN">      0.10000000</i>
    <i name="AMIX_MAG">      1.60000000</i>
    <i name="BMIX_MAG">      1.00000000</i>
    <separator name="electronic mixer details" >
     <i type="int" name="IMIX">     4</i>
     <i type="logical" name="MIXFIRST"> F  </i>
     <i type="int" name="MAXMIX">   -45</i>
     <i name="WC">    100.00000000</i>
     <i type="int" name="INIMIX">     1</i>
     <i type="int" name="MIXPRE">     1</i>
     <i type="int" name="MREMOVE">     5</i>
    </separator>
   </separator>
   <separator name="electronic dipolcorrection" >
    <i type="logical" name="LDIPOL"> T  </i>
    <i type="logical" name="LMONO"> F  </i>
    <i type="int" name="IDIPOL">     3</i>
    <i name="EPSILON">      1.00000000</i>
    <v name="DIPOL">   -100.00000000   -100.00000000   -100.00000000</v>
    <i name="EFIELD">      0.00000000</i>
   </separator>
  </separator>
  <separator name="grids" >
   <i type="int" name="NGX">    42</i>
   <i type="int" name="NGY">    42</i>
   <i type="int" name="NGZ">   140</i>
   <i type="int" name="NGXF">    84</i>
   <i type="int" name="NGYF">    84</i>
   <i type="int" name="NGZF">   280</i>
   <i type="logical" name="ADDGRID"> F  </i>
  </separator>
  <separator name="ionic" >
   <i type="int" name="NSW">   500</i>
   <i type="int" name="IBRION">     3</i>
   <i type="int" name="ISIF">     2</i>
   <i name="PSTRESS">      0.00000000</i>
   <i name="EDIFFG">     -0.02000000</i>
   <i type="int" name="NFREE">     0</i>
   <i name="POTIM">      0.00000000</i>
   <i name="SMASS">     -3.00000000</i>
   <i name="SCALEE">      1.00000000</i>
  </separator>
  <separator name="ionic md" >
   <i name="TEBEG">      0.00010000</i>
   <i name="TEEND">      0.00010000</i>
   <i type="int" name="NBLOCK">     1</i>
   <i type="int" name="KBLOCK">   500</i>
   <i type="int" name="NPACO">   256</i>
   <i name="APACO">     16.00000000</i>
  </separator>
  <separator name="symmetry" >
   <i type="int" name="ISYM">     2</i>
   <i name="SYMPREC">      0.00001000</i>
  </separator>
  <separator name="dos" >
   <i type="logical" name="LORBIT"> F  </i>
   <v name="RWIGS">     -1.00000000     -1.00000000</v>
   <i type="int" name="NEDOS">   301</i>
   <i name="EMIN">     10.00000000</i>
   <i name="EMAX">    -10.00000000</i>
   <i name="EFERMI">      0.00000000</i>
  </separator>
  <separator name="writing" >
   <i type="int" name="NWRITE">     2</i>
   <i type="logical" name="LWAVE"> F  </i>
   <i type="logical" name="LCHARG"> F  </i>
   <i type="logical" name="LPARD"> F  </i>
   <i type="logical" name="LVTOT"> F  </i>
   <i type="logical" name="LVHAR"> F  </i>
   <i type="logical" name="LELF"> F  </i>
   <i type="logical" name="LOPTICS"> F  </i>
   <v name="STM">      0.00000000      0.00000000      0.00000000      0.00000000      0.00000000      0.00000000      0.00000000</v>
  </separator>
  <separator name="performance" >
   <i type="int" name="NPAR">    10</i>
   <i type="int" name="NSIM">     4</i>
   <i type="int" name="NBLK">    -1</i>
   <i type="logical" name="LPLANE"> T  </i>
   <i type="logical" name="LSCALAPACK"> T  </i>
   <i type="logical" name="LSCAAWARE"> F  </i>
   <i type="logical" name="LSCALU"> F  </i>
   <i type="logical" name="LASYNC"> F  </i>
   <i type="logical" name="LORBITALREAL"> F  </i>
  </separator>
  <separator name="miscellaneous" >
   <i type="int" name="IDIOT">     3</i>
   <i type="logical" name="LMUSIC"> F  </i>
   <v name="POMASS">     63.54600000    107.86800000</v>
   <v name="DARWINR">      0.00000000      0.00000000</v>
   <v name="DARWINV">      1.00000000      1.00000000</v>
   <i type="logical" name="LCORR"> T  </i>
  </separator>
  <i type="logical" name="GGA_COMPAT"> T  </i>
  <i type="logical" name="LBERRY"> F  </i>
  <i type="int" name="ICORELEVEL">     0</i>
  <i type="logical" name="LDAU"> F  </i>
  <i type="int" name="I_CONSTRAINED_M">     0</i>
  <separator name="electronic exchange-correlation" >
   <i type="string" name="GGA">--</i>
   <i type="int" name="VOSKOWN">     0</i>
   <i type="logical" name="LHFCALC"> F  </i>
   <i type="string" name="PRECFOCK"></i>
   <i type="logical" name="LSYMGRAD"> F  </i>
   <i type="logical" name="LHFONE"> F  </i>
   <i type="logical" name="LRHFCALC"> F  </i>
   <i type="logical" name="LTHOMAS"> F  </i>
   <i type="logical" name="LMODELHF"> F  </i>
   <i name="ENCUT4O">     -1.00000000</i>
   <i type="int" name="EXXOEP">     0</i>
   <i type="int" name="FOURORBIT">     0</i>
   <i name="AEXX">      0.00000000</i>
   <i name="HFALPHA">      0.00000000</i>
   <i name="MCALPHA">      0.00000000</i>
   <i name="ALDAX">      1.00000000</i>
   <i name="AGGAX">      1.00000000</i>
   <i name="ALDAC">      1.00000000</i>
   <i name="AGGAC">      1.00000000</i>
   <i type="int" name="NKREDX">     1</i>
   <i type="int" name="NKREDY">     1</i>
   <i type="int" name="NKREDZ">     1</i>
   <i type="logical" name="SHIFTRED"> F  </i>
   <i type="logical" name="ODDONLY"> F  </i>
   <i type="logical" name="EVENONLY"> F  </i>
   <i type="int" name="LMAXFOCK">     0</i>
   <i type="int" name="NMAXFOCKAE">     0</i>
   <i type="logical" name="LFOCKAEDFT"> F  </i>
   <i name="HFSCREEN">      0.00000000</i>
   <i name="HFSCREENC">      0.00000000</i>
   <i type="int" name="NBANDSGWLOW">     0</i>
  </separator>
  <separator name="vdW DFT" >
   <i type="logical" name="LUSE_VDW"> F  </i>
   <i name="Zab_VDW">     -0.84910000</i>
   <i name="PARAM1">      0.12340000</i>
   <i name="PARAM2">      1.00000000</i>
   <i name="PARAM3">      0.00000000</i>
  </separator>
  <separator name="model GW" >
   <i type="int" name="MODEL_GW">     0</i>
   <i name="MODEL_EPS0">     20.29623396</i>
   <i name="MODEL_ALPHA">      1.00000000</i>
  </separator>
  <separator name="linear response parameters" >
   <i type="logical" name="LEPSILON"> F  </i>
   <i type="logical" name="LRPA"> F  </i>
   <i type="logical" name="LNABLA"> F  </i>
   <i type="logical" name="LVEL"> F  </i>
   <i type="int" name="KINTER">     0</i>
   <i name="CSHIFT">      0.10000000</i>
   <i name="OMEGAMAX">     -1.00000000</i>
   <i name="DEG_THRESHOLD">      0.00200000</i>
  </separator>
  <separator name="orbital magnetization" >
   <i type="logical" name="NUCIND"> F  </i>
   <v name="MAGPOS">      0.00000000      0.00000000      0.00000000</v>
   <i type="logical" name="LNICSALL"> T  </i>
   <i type="logical" name="ORBITALMAG"> F  </i>
   <i type="logical" name="LMAGBLOCH"> F  </i>
   <i type="logical" name="LCHIMAG"> F  </i>
   <i type="logical" name="LGAUGE"> T  </i>
   <i type="int" name="MAGATOM">     0</i>
   <v name="MAGDIPOL">      0.00000000      0.00000000      0.00000000</v>
   <v name="AVECCONST">      0.00000000      0.00000000      0.00000000</v>
  </separator>
  <separator name="response functions" >
   <i type="logical" name="LADDER"> F  </i>
   <i type="logical" name="LFXC"> F  </i>
   <i type="logical" name="LHARTREE"> T  </i>
   <i type="int" name="IBSE">     0</i>
   <v type="int" name="KPOINT">    -1     0     0     0</v>
   <i type="logical" name="LTCTE"> F  </i>
   <i type="logical" name="LTETE"> F  </i>
   <i type="logical" name="LTRIPLET"> F  </i>
   <i type="logical" name="LFXCEPS"> F  </i>
   <i type="logical" name="LFXHEG"> F  </i>
   <i type="int" name="NATURALO">     0</i>
   <i type="logical" name="L2ORDER"> F  </i>
   <i type="logical" name="LUSEW"> F  </i>
   <i name="ENCUTGW">     -2.00000000</i>
   <i name="ENCUTGWSOFT">     -2.00000000</i>
   <i name="ENCUTLF">     -1.00000000</i>
   <i type="int" name="LMAXMP2">    -1</i>
   <i name="SCISSOR">      0.00000000</i>
   <i type="int" name="NOMEGA">     0</i>
   <i type="int" name="NOMEGAR">     0</i>
   <i type="int" name="NBANDSGW">    -1</i>
   <i type="int" name="NBANDSO">    -1</i>
   <i type="int" name="NBANDSV">    -1</i>
   <i type="int" name="NELM">   400</i>
   <i type="int" name="NELMHF">     1</i>
   <i type="int" name="DIM">     3</i>
   <i type="int" name="ANTIRES">     0</i>
   <i name="OMEGAMAX">    -30.00000000</i>
   <i name="OMEGAMIN">    -30.00000000</i>
   <i name="OMEGATL">   -200.00000000</i>
   <i type="int" name="OMEGAGRID">     0</i>
   <i name="CSHIFT">     -0.10000000</i>
   <i type="logical" name="SELFENERGY"> F  </i>
   <i type="logical" name="LSPECTRAL"> F  </i>
   <i type="logical" name="LSPECTRALGW"> F  </i>
   <i type="logical" name="LSINGLES"> F  </i>
   <i type="logical" name="LFERMIGW"> F  </i>
   <i type="logical" name="ODDONLYGW"> F  </i>
   <i type="logical" name="EVENONLYGW"> F  </i>
   <i type="int" name="NKREDLFX">     1</i>
   <i type="int" name="NKREDLFY">     1</i>
   <i type="int" name="NKREDLFZ">     1</i>
   <i type="int" name="MAXMEM">  1800</i>
   <i type="int" name="TELESCOPE">     0</i>
   <i type="int" name="TAUPAR">     1</i>
   <i type="int" name="OMEGAPAR">    -1</i>
   <i name="LAMBDA">      1.00000000</i>
  </separator>
  <separator name="External order field" >
   <i name="OFIELD_KAPPA">      0.00000000</i>
   <v name="OFIELD_K">      0.00000000      0.00000000      0.00000000</v>
   <i name="OFIELD_Q6_NEAR">      0.00000000</i>
   <i name="OFIELD_Q6_FAR">      0.00000000</i>
   <i name="OFIELD_A">      0.00000000</i>
  </separator>
 </parameters>
 <atominfo>
  <atoms>      37 </atoms>
  <types>       2 </types>
  <array name="atoms" >
   <dimension dim="1">ion</dimension>
   <field type="string">element</field>
   <field type="int">atomtype</field>
   <set>
    <rc><c>Cu</c><c>   1</c></rc>
    <rc><c>Cu</c><c>   1</c></rc>
    <rc><c>Cu</c><c>   1</c></rc>
    <rc><c>Cu</c><c>   1</c></rc>
    <rc><c>Cu</c><c>   1</c></rc>
    <rc><c>Cu</c><c>   1</c></rc>
    <rc><c>Cu</c><c>   1</c></rc>
    <rc><c>Cu</c><c>   1</c></rc>
    <rc><c>Cu</c><c>   1</c></rc>
    <rc><c>Cu</c><c>   1</c></rc>
    <rc><c>Cu</c><c>   1</c></rc>
    <rc><c>Cu</c><c>   1</c></rc>
    <rc><c>Cu</c><c>   1</c></rc>
    <rc><c>Cu</c><c>   1</c></rc>
    <rc><c>Cu</c><c>   1</c></rc>
    <rc><c>Cu</c><c>   1</c></rc>
    <rc><c>Cu</c><c>   1</c></rc>
    <rc><c>Cu</c><c>   1</c></rc>
    <rc><c>Cu</c><c>   1</c></rc>
    <rc><c>Cu</c><c>   1</c></rc>
    <rc><c>Cu</c><c>   1</c></rc>
    <rc><c>Cu</c><c>   1</c></rc>
    <rc><c>Cu</c><c>   1</c></rc>
    <rc><c>Cu</c><c>   1</c></rc>
    <rc><c>Cu</c><c>   1</c></rc>
    <rc><c>Cu</c><c>   1</c></rc>
    <rc><c>Cu</c><c>   1</c></rc>
    <rc><c>Cu</c><c>   1</c></rc>
    <rc><c>Cu</c><c>   1</c></rc>
    <rc><c>Cu</c><c>   1</c></rc>
    <rc><c>Cu</c><c>   1</c></rc>
    <rc><c>Cu</c><c>   1</c></rc>
    <rc><c>Cu</c><c>   1</c></rc>
    <rc><c>Cu</c><c>   1</c></rc>
    <rc><c>Cu</c><c>   1</c></rc>
    <rc><c>Cu</c><c>   1</c></rc>
    <rc><c>Ag</c><c>   2</c></rc>
   </set>
  </array>
  <array name="atomtypes" >
   <dimension dim="1">type</dimension>
   <field type="int">atomspertype</field>
   <field type="string">element</field>
   <field>mass</field>
   <field>valence</field>
   <field type="string">pseudopotential</field>
   <set>
    <rc><c>  36</c><c>Cu</c><c>     63.54600000</c><c>     11.00000000</c><c> PAW_GGA Cu 05Jan2001                   </c></rc>
    <rc><c>   1</c><c>Ag</c><c>    107.86800000</c><c>     11.00000000</c><c> PAW_GGA Ag 18Jul2000                   </c></rc>
   </set>
  </array>
 </atominfo>
 <structure name="initialpos" >
  <crystal>
   <varray name="basis" >
    <v>       7.71239996       0.00000000       0.00000000 </v>
    <v>      -3.85619998       6.67913429       0.00000000 </v>
    <v>       0.00000000       0.00000000      24.29719925 </v>
   </varray>
   <i name="volume">   1251.60109432 </i>
   <varray name="rec_basis" >
    <v>       0.12966133       0.07486000       0.00000000 </v>
    <v>       0.00000000       0.14972000       0.00000000 </v>
    <v>       0.00000000       0.00000000       0.04115701 </v>
   </varray>
  </crystal>
  <varray name="positions" >
   <v>       0.33333055       0.66666952       0.99998117 </v>
   <v>       0.33333155       0.99999968       0.99998127 </v>
   <v>       0.00000034       0.66666851       0.99998127 </v>
   <v>       0.00000106       0.99999894       0.99998137 </v>
   <v>       0.33333374       0.33333358       0.99998160 </v>
   <v>       0.66666645       0.66666631       0.99998160 </v>
   <v>       0.66666550       0.99999855       0.99998166 </v>
   <v>       0.00000144       0.33333452       0.99998166 </v>
   <v>       0.66666864       0.33333139       0.99998187 </v>
   <v>       0.44444232       0.22222301       0.08654002 </v>
   <v>       0.77777700       0.55555767       0.08654002 </v>
   <v>       0.11110840       0.55555772       0.08654003 </v>
   <v>       0.44444228       0.88889164       0.08654003 </v>
   <v>       0.44444159       0.55555839       0.08654015 </v>
   <v>       0.77777882       0.22222117       0.08654017 </v>
   <v>       0.11110945       0.88889061       0.08654046 </v>
   <v>       0.11110991       0.22222219       0.08654066 </v>
   <v>       0.77777783       0.88889014       0.08654066 </v>
   <v>       0.22238208       0.11095002       0.17235486 </v>
   <v>       0.88942741       0.77865264       0.17276865 </v>
   <v>       0.88871026       0.11100868       0.17253784 </v>
   <v>       0.22240813       0.77798141       0.17322457 </v>
   <v>       0.55468361       0.44390434       0.17276916 </v>
   <v>       0.55535517       0.11092145       0.17322472 </v>
   <v>       0.88928801       0.44404591       0.17288461 </v>
   <v>       0.22232377       0.44462266       0.17253829 </v>
   <v>       0.55543779       0.77789693       0.17319975 </v>
   <v>       0.33327013       0.66648057       0.25890953 </v>
   <v>       0.33359985       0.99973613       0.25889569 </v>
   <v>       0.99972511       0.66652475       0.25832033 </v>
   <v>       0.33684815       0.33563927       0.25789945 </v>
   <v>       0.66678421       0.66654856       0.25810686 </v>
   <v>       0.99769341       0.99648650       0.25789968 </v>
   <v>       0.66685656       0.00006161       0.25891013 </v>
   <v>       0.99842672       0.33490449       0.25812876 </v>
   <v>       0.66681028       0.33360398       0.25832083 </v>
   <v>       0.13333644       0.19999566       0.34443479 </v>
  </varray>
  <varray name="selective"  type="logical" >
   <v type="logical" >  F  F  F </v>
   <v type="logical" >  F  F  F </v>
   <v type="logical" >  F  F  F </v>
   <v type="logical" >  F  F  F </v>
   <v type="logical" >  F  F  F </v>
   <v type="logical" >  F  F  F </v>
   <v type="logical" >  F  F  F </v>
   <v type="logical" >  F  F  F </v>
   <v type="logical" >  F  F  F </v>
   <v type="logical" >  F  F  F </v>
   <v type="logical" >  F  F  F </v>
   <v type="logical" >  F  F  F </v>
   <v type="logical" >  F  F  F </v>
   <v type="logical" >  F  F  F </v>
   <v type="logical" >  F  F  F </v>
   <v type="logical" >  F  F  F </v>
   <v type="logical" >  F  F  F </v>
   <v type="logical" >  F  F  F </v>
   <v type="logical" >  T  T  T </v>
   <v type="logical" >  T  T  T </v>
   <v type="logical" >  T  T  T </v>
   <v type="logical" >  T  T  T </v>
   <v type="logical" >  T  T  T </v>
   <v type="logical" >  T  T  T </v>
   <v type="logical" >  T  T  T </v>
   <v type="logical" >  T  T  T </v>
   <v type="logical" >  T  T  T </v>
   <v type="logical" >  T  T  T </v>
   <v type="logical" >  T  T  T </v>
   <v type="logical" >  T  T  T </v>
   <v type="logical" >  T  T  T </v>
   <v type="logical" >  T  T  T </v>
   <v type="logical" >  T  T  T </v>
   <v type="logical" >  T  T  T </v>
   <v type="logical" >  T  T  T </v>
   <v type="logical" >  T  T  T </v>
   <v type="logical" >  T  T  T </v>
  </varray>
  <nose>
   <v>      -3.00000000       0.00000000       0.00010000       0.00010000 </v>
  </nose>
 </structure>
 <calculation>
  <scstep>
   <time name="dav">   21.82   21.87</time>
   <time name="total">   22.00   22.05</time>
   <dipole>
    <v name="dipole">      0.00000000       0.00000000       0.00006031 </v>
    <i name="Tr[quadrupol]">  -3867.90827725 </i>
    <i name="Echarged">      0.00000000 </i>
    <i name="Edipol_quadrupol">      0.00000000 </i>
    <i name="Eion">      0.00000000 </i>
   </dipole>
   <energy>
    <i name="alphaZ">   1406.13072347 </i>
    <i name="ewald"> 209157.96720798 </i>
    <i name="hartreedc">-256822.48184564 </i>
    <i name="XCdc">   1553.48799028 </i>
    <i name="pawpsdc">  39856.75882069 </i>
    <i name="pawaedc"> -45014.40712326 </i>
    <i name="eentropy">     -0.07188759 </i>
    <i name="bandstr">   1744.75321228 </i>
    <i name="atom">  51188.86509581 </i>
    <i name="e_fr_energy">   3071.00219403 </i>
    <i name="e_wo_entrp">   3071.07408162 </i>
    <i name="e_0_energy">   3071.03813782 </i>
   </energy>
  </scstep>
  <scstep>
   <time name="dav">   21.24   21.29</time>
   <time name="total">   21.24   21.29</time>
   <dipole>
    <v name="dipole">      0.00000000       0.00000000       0.00006031 </v>
    <i name="Tr[quadrupol]">  -3867.90827725 </i>
    <i name="Echarged">      0.00000000 </i>
    <i name="Edipol_quadrupol">      0.00000000 </i>
    <i name="Eion">      0.00000000 </i>
   </dipole>
   <energy>
    <i name="e_fr_energy">    166.41318806 </i>
    <i name="e_wo_entrp">    166.49394320 </i>
    <i name="e_0_energy">    166.45356563 </i>
   </energy>
  </scstep>
  <scstep>
   <time name="dav">   21.91   21.96</time>
   <time name="total">   21.91   21.97</time>
   <dipole>
    <v name="dipole">      0.00000000       0.00000000       0.00006031 </v>
    <i name="Tr[quadrupol]">  -3867.90827725 </i>
    <i name="Echarged">      0.00000000 </i>
    <i name="Edipol_quadrupol">      0.00000000 </i>
    <i name="Eion">      0.00000000 </i>
   </dipole>
   <energy>
    <i name="e_fr_energy">   -144.40379934 </i>
    <i name="e_wo_entrp">   -144.27635464 </i>
    <i name="e_0_energy">   -144.34007699 </i>
   </energy>
  </scstep>
  <scstep>
   <time name="dav">   22.38   22.44</time>
   <time name="total">   22.39   22.44</time>
   <dipole>
    <v name="dipole">      0.00000000       0.00000000       0.00006031 </v>
    <i name="Tr[quadrupol]">  -3867.90827725 </i>
    <i name="Echarged">      0.00000000 </i>
    <i name="Edipol_quadrupol">      0.00000000 </i>
    <i name="Eion">      0.00000000 </i>
   </dipole>
   <energy>
    <i name="e_fr_energy">   -155.81381987 </i>
    <i name="e_wo_entrp">   -155.67946713 </i>
    <i name="e_0_energy">   -155.74664350 </i>
   </energy>
  </scstep>
  <scstep>
   <time name="dav">   22.65   22.70</time>
   <time name="total">   23.65   23.71</time>
   <dipole>
    <v name="dipole">      0.00000000       0.00000000       0.00006031 </v>
    <i name="Tr[quadrupol]">  -3867.90827725 </i>
    <i name="Echarged">      0.00000000 </i>
    <i name="Edipol_quadrupol">      0.00000000 </i>
    <i name="Eion">      0.00000000 </i>
   </dipole>
   <energy>
    <i name="e_fr_energy">   -155.91157493 </i>
    <i name="e_wo_entrp">   -155.77714106 </i>
    <i name="e_0_energy">   -155.84435800 </i>
   </energy>
  </scstep>
  <scstep>
   <time name="dav">   22.81   22.86</time>
   <time name="total">   24.01   24.07</time>
   <dipole>
    <v name="dipole">      0.00000000       0.00000000      -0.03912596 </v>
    <i name="Tr[quadrupol]">  -3868.30212063 </i>
    <i name="Echarged">      0.00000000 </i>
    <i name="Edipol_quadrupol">      0.00000000 </i>
    <i name="Eion">      0.00000000 </i>
   </dipole>
   <energy>
    <i name="e_fr_energy">   -141.08205385 </i>
    <i name="e_wo_entrp">   -140.99402114 </i>
    <i name="e_0_energy">   -141.03803749 </i>
   </energy>
  </scstep>
  <scstep>
   <time name="dav">   23.30   23.36</time>
   <time name="total">   24.51   24.57</time>
   <dipole>
    <v name="dipole">      0.00000000       0.00000000      -0.25015988 </v>
    <i name="Tr[quadrupol]">  -3871.01880638 </i>
    <i name="Echarged">      0.00000000 </i>
    <i name="Edipol_quadrupol">      0.00000000 </i>
    <i name="Eion">      0.00000000 </i>
   </dipole>
   <energy>
    <i name="e_fr_energy">   -128.28262891 </i>
    <i name="e_wo_entrp">   -128.20165243 </i>
    <i name="e_0_energy">   -128.24214067 </i>
   </energy>
  </scstep>
  <scstep>
   <time name="dav">   24.12   24.18</time>
   <time name="total">   25.38   25.44</time>
   <dipole>
    <v name="dipole">      0.00000000       0.00000000       0.02151623 </v>
    <i name="Tr[quadrupol]">  -3872.59349830 </i>
    <i name="Echarged">      0.00000000 </i>
    <i name="Edipol_quadrupol">      0.00000000 </i>
    <i name="Eion">      0.00000000 </i>
   </dipole>
   <energy>
    <i name="e_fr_energy">   -128.84784899 </i>
    <i name="e_wo_entrp">   -128.75241609 </i>
    <i name="e_0_energy">   -128.80013254 </i>
   </energy>
  </scstep>
  <scstep>
   <time name="dav">   25.46   25.52</time>
   <time name="total">   26.73   26.79</time>
   <dipole>
    <v name="dipole">      0.00000000       0.00000000      -0.27723502 </v>
    <i name="Tr[quadrupol]">  -3872.02992505 </i>
    <i name="Echarged">      0.00000000 </i>
    <i name="Edipol_quadrupol">      0.00000000 </i>
    <i name="Eion">      0.00000000 </i>
   </dipole>
   <energy>
    <i name="e_fr_energy">   -128.27274574 </i>
    <i name="e_wo_entrp">   -128.18954001 </i>
    <i name="e_0_energy">   -128.23114287 </i>
   </energy>
  </scstep>
  <scstep>
   <time name="dav">   27.05   27.11</time>
   <time name="total">   28.34   28.41</time>
   <dipole>
    <v name="dipole">      0.00000000       0.00000000      -0.17629158 </v>
    <i name="Tr[quadrupol]">  -3872.61436097 </i>
    <i name="Echarged">      0.00000000 </i>
    <i name="Edipol_quadrupol">      0.00000000 </i>
    <i name="Eion">      0.00000000 </i>
   </dipole>
   <energy>
    <i name="e_fr_energy">   -128.19052602 </i>
    <i name="e_wo_entrp">   -128.10973938 </i>
    <i name="e_0_energy">   -128.15013270 </i>
   </energy>
  </scstep>
  <scstep>
   <time name="dav">   22.16   22.21</time>
   <time name="total">   23.43   23.49</time>
   <dipole>
    <v name="dipole">      0.00000000       0.00000000      -0.21512103 </v>
    <i name="Tr[quadrupol]">  -3873.05486868 </i>
    <i name="Echarged">      0.00000000 </i>
    <i name="Edipol_quadrupol">      0.00000000 </i>
    <i name="Eion">      0.00000000 </i>
   </dipole>
   <energy>
    <i name="e_fr_energy">   -128.15553034 </i>
    <i name="e_wo_entrp">   -128.07574085 </i>
    <i name="e_0_energy">   -128.11563560 </i>
   </energy>
  </scstep>
  <scstep>
   <time name="dav">   22.72   22.77</time>
   <time name="total">   24.01   24.07</time>
   <dipole>
    <v name="dipole">      0.00000000       0.00000000      -0.23835366 </v>
    <i name="Tr[quadrupol]">  -3873.06914879 </i>
    <i name="Echarged">      0.00000000 </i>
    <i name="Edipol_quadrupol">      0.00000000 </i>
    <i name="Eion">      0.00000000 </i>
   </dipole>
   <energy>
    <i name="e_fr_energy">   -128.15656034 </i>
    <i name="e_wo_entrp">   -128.07608547 </i>
    <i name="e_0_energy">   -128.11632291 </i>
   </energy>
  </scstep>
  <scstep>
   <time name="dav">   22.54   22.59</time>
   <time name="total">   23.82   23.88</time>
   <dipole>
    <v name="dipole">      0.00000000       0.00000000      -0.22948401 </v>
    <i name="Tr[quadrupol]">  -3873.31693361 </i>
    <i name="Echarged">      0.00000000 </i>
    <i name="Edipol_quadrupol">      0.00000000 </i>
    <i name="Eion">      0.00000000 </i>
   </dipole>
   <energy>
    <i name="e_fr_energy">   -128.15009625 </i>
    <i name="e_wo_entrp">   -128.07073022 </i>
    <i name="e_0_energy">   -128.11041323 </i>
   </energy>
  </scstep>
  <scstep>
   <time name="dav">   22.71   22.76</time>
   <time name="total">   24.00   24.06</time>
   <dipole>
    <v name="dipole">      0.00000000       0.00000000      -0.22409158 </v>
    <i name="Tr[quadrupol]">  -3873.53492858 </i>
    <i name="Echarged">      0.00000000 </i>
    <i name="Edipol_quadrupol">      0.00000000 </i>
    <i name="Eion">      0.00000000 </i>
   </dipole>
   <energy>
    <i name="e_fr_energy">   -128.14567208 </i>
    <i name="e_wo_entrp">   -128.06774798 </i>
    <i name="e_0_energy">   -128.10671003 </i>
   </energy>
  </scstep>
  <scstep>
   <time name="dav">   21.92   21.97</time>
   <time name="total">   23.19   23.24</time>
   <dipole>
    <v name="dipole">      0.00000000       0.00000000      -0.21704055 </v>
    <i name="Tr[quadrupol]">  -3873.81296398 </i>
    <i name="Echarged">      0.00000000 </i>
    <i name="Edipol_quadrupol">      0.00000000 </i>
    <i name="Eion">      0.00000000 </i>
   </dipole>
   <energy>
    <i name="e_fr_energy">   -128.14199667 </i>
    <i name="e_wo_entrp">   -128.06388071 </i>
    <i name="e_0_energy">   -128.10293869 </i>
   </energy>
  </scstep>
  <scstep>
   <time name="dav">   22.20   22.26</time>
   <time name="total">   23.48   23.53</time>
   <dipole>
    <v name="dipole">      0.00000000       0.00000000      -0.21090676 </v>
    <i name="Tr[quadrupol]">  -3873.99516557 </i>
    <i name="Echarged">      0.00000000 </i>
    <i name="Edipol_quadrupol">      0.00000000 </i>
    <i name="Eion">      0.00000000 </i>
   </dipole>
   <energy>
    <i name="e_fr_energy">   -128.13984240 </i>
    <i name="e_wo_entrp">   -128.06128664 </i>
    <i name="e_0_energy">   -128.10056452 </i>
   </energy>
  </scstep>
  <scstep>
   <time name="dav">   21.87   21.92</time>
   <time name="total">   23.10   23.16</time>
   <dipole>
    <v name="dipole">      0.00000000       0.00000000      -0.20773571 </v>
    <i name="Tr[quadrupol]">  -3874.14028502 </i>
    <i name="Echarged">      0.00000000 </i>
    <i name="Edipol_quadrupol">      0.00000000 </i>
    <i name="Eion">      0.00000000 </i>
   </dipole>
   <energy>
    <i name="e_fr_energy">   -128.13946535 </i>
    <i name="e_wo_entrp">   -128.06051961 </i>
    <i name="e_0_energy">   -128.09999248 </i>
   </energy>
  </scstep>
  <scstep>
   <time name="dav">   23.45   23.50</time>
   <time name="total">   24.73   24.79</time>
   <dipole>
    <v name="dipole">      0.00000000       0.00000000      -0.17647835 </v>
    <i name="Tr[quadrupol]">  -3874.60669034 </i>
    <i name="Echarged">      0.00000000 </i>
    <i name="Edipol_quadrupol">      0.00000000 </i>
    <i name="Eion">      0.00000000 </i>
   </dipole>
   <energy>
    <i name="e_fr_energy">   -128.14092959 </i>
    <i name="e_wo_entrp">   -128.06229771 </i>
    <i name="e_0_energy">   -128.10161365 </i>
   </energy>
  </scstep>
  <scstep>
   <time name="dav">   28.54   28.61</time>
   <time name="total">   29.81   29.88</time>
   <dipole>
    <v name="dipole">      0.00000000       0.00000000      -0.20734664 </v>
    <i name="Tr[quadrupol]">  -3874.50492576 </i>
    <i name="Echarged">      0.00000000 </i>
    <i name="Edipol_quadrupol">      0.00000000 </i>
    <i name="Eion">      0.00000000 </i>
   </dipole>
   <energy>
    <i name="e_fr_energy">   -128.14218534 </i>
    <i name="e_wo_entrp">   -128.06281488 </i>
    <i name="e_0_energy">   -128.10250011 </i>
   </energy>
  </scstep>
  <scstep>
   <time name="dav">   22.00   22.05</time>
   <time name="total">   23.29   23.35</time>
   <dipole>
    <v name="dipole">      0.00000000       0.00000000      -0.20929486 </v>
    <i name="Tr[quadrupol]">  -3874.49023467 </i>
    <i name="Echarged">      0.00000000 </i>
    <i name="Edipol_quadrupol">      0.00000000 </i>
    <i name="Eion">      0.00000000 </i>
   </dipole>
   <energy>
    <i name="e_fr_energy">   -128.14365612 </i>
    <i name="e_wo_entrp">   -128.06441003 </i>
    <i name="e_0_energy">   -128.10403308 </i>
   </energy>
  </scstep>
  <scstep>
   <time name="dav">   24.52   24.57</time>
   <time name="total">   25.71   25.77</time>
   <dipole>
    <v name="dipole">      0.00000000       0.00000000      -0.19462013 </v>
    <i name="Tr[quadrupol]">  -3876.30661942 </i>
    <i name="Echarged">      0.00000000 </i>
    <i name="Edipol_quadrupol">      0.00000000 </i>
    <i name="Eion">      0.00000000 </i>
   </dipole>
   <energy>
    <i name="e_fr_energy">   -128.18876101 </i>
    <i name="e_wo_entrp">   -128.10998574 </i>
    <i name="e_0_energy">   -128.14937338 </i>
   </energy>
  </scstep>
  <scstep>
   <time name="dav">   21.77   21.83</time>
   <time name="total">   22.97   23.03</time>
   <dipole>
    <v name="dipole">      0.00000000       0.00000000      -0.19765196 </v>
    <i name="Tr[quadrupol]">  -3876.44676113 </i>
    <i name="Echarged">      0.00000000 </i>
    <i name="Edipol_quadrupol">      0.00000000 </i>
    <i name="Eion">      0.00000000 </i>
   </dipole>
   <energy>
    <i name="e_fr_energy">   -128.18968879 </i>
    <i name="e_wo_entrp">   -128.11078172 </i>
    <i name="e_0_energy">   -128.15023525 </i>
   </energy>
  </scstep>
  <scstep>
   <time name="dav">   21.67   21.72</time>
   <time name="total">   22.90   22.96</time>
   <dipole>
    <v name="dipole">      0.00000000       0.00000000      -0.19932266 </v>
    <i name="Tr[quadrupol]">  -3876.32330140 </i>
    <i name="Echarged">      0.00000000 </i>
    <i name="Edipol_quadrupol">      0.00000000 </i>
    <i name="Eion">      0.00000000 </i>
   </dipole>
   <energy>
    <i name="e_fr_energy">   -128.18977258 </i>
    <i name="e_wo_entrp">   -128.11084812 </i>
    <i name="e_0_energy">   -128.15031035 </i>
   </energy>
  </scstep>
  <scstep>
   <time name="dav">   16.56   16.60</time>
   <time name="total">   17.78   17.82</time>
   <dipole>
    <v name="dipole">      0.00000000       0.00000000      -0.19908966 </v>
    <i name="Tr[quadrupol]">  -3876.30555383 </i>
    <i name="Echarged">      0.00000000 </i>
    <i name="Edipol_quadrupol">      0.00000000 </i>
    <i name="Eion">      0.00000000 </i>
   </dipole>
   <energy>
    <i name="e_fr_energy">   -128.18981090 </i>
    <i name="e_wo_entrp">   -128.11093466 </i>
    <i name="e_0_energy">   -128.15037278 </i>
   </energy>
  </scstep>
  <scstep>
   <time name="dav">   15.59   15.62</time>
   <time name="total">   16.87   16.91</time>
   <dipole>
    <v name="dipole">      0.00000000       0.00000000      -0.19759160 </v>
    <i name="Tr[quadrupol]">  -3876.34482200 </i>
    <i name="Echarged">      0.00000000 </i>
    <i name="Edipol_quadrupol">      0.00000000 </i>
    <i name="Eion">      0.00000000 </i>
   </dipole>
   <energy>
    <i name="e_fr_energy">   -128.18984401 </i>
    <i name="e_wo_entrp">   -128.11107511 </i>
    <i name="e_0_energy">   -128.15045956 </i>
   </energy>
  </scstep>
  <scstep>
   <time name="dav">   18.17   18.21</time>
   <time name="total">   19.42   19.47</time>
   <dipole>
    <v name="dipole">      0.00000000       0.00000000      -0.19622899 </v>
    <i name="Tr[quadrupol]">  -3876.12461971 </i>
    <i name="Echarged">      0.00000000 </i>
    <i name="Edipol_quadrupol">      0.00000000 </i>
    <i name="Eion">      0.00000000 </i>
   </dipole>
   <energy>
    <i name="e_fr_energy">   -128.18985468 </i>
    <i name="e_wo_entrp">   -128.11109432 </i>
    <i name="e_0_energy">   -128.15047450 </i>
   </energy>
  </scstep>
  <scstep>
   <time name="dav">   14.95   14.98</time>
   <time name="total">   16.06   16.10</time>
   <dipole>
    <v name="dipole">      0.00000000       0.00000000      -0.19654242 </v>
    <i name="Tr[quadrupol]">  -3875.99575480 </i>
    <i name="Echarged">      0.00000000 </i>
    <i name="Edipol_quadrupol">      0.00000000 </i>
    <i name="Eion">      0.00000000 </i>
   </dipole  <structure>
   <crystal>
    <varray name="basis" >
     <v>       7.71239996       0.00000000       0.00000000 </v>
     <v>      -3.85619998       6.67913429       0.00000000 </v>
     <v>   <time name="dav">   11.41   11.44</time>
   <time name="total">   11.56   11.60</time>
   <dipole>
    <v name="dipole">      0.00000000       0.00000000      -0.19729001 </v>
    <i name="Tr[quadrupol]">  -3875.93663574 </i>
    <i name="Echarged">      0.00000000 </i>
    <i name="Edipol_quadrupol">      0.00000000 </i>
    <i name="Eion">      0.00000000 </i>
   </dipole>
   <energy>
    <i name="alphaZ">   1387.85752561 </i>
    <i name="ewald"> 209163.63812169 </i>
    <i name="hartreedc">-256408.21414966 </i>
    <i name="XCdc">   1517.60325864 </i>
    <i name="pawpsdc">  40249.82590846 </i>
    <i name="pawaedc"> -45430.90005762 </i>
    <i name="eentropy">     -0.07883825 </i>
    <i name="bandstr">  -1796.78670547 </i>
    <i name="atom">  51188.86509581 </i>
    <i name="e_fr_energy">   -128.18984078 </i>
    <i name="e_wo_entrp">   -128.11100253 </i>
    <i name="e_0_energy">   -128.15042166 </i>
   </energy>
  </scstep>
  <structure>
   <crystal>
    <varray name="basis" >
     <v>       7.71239996       0.00000000       0.00000000 </v>
     <v>      -3.85619998       6.67913429       0.00000000 </v>
     <v>       0.00000000       0.00000000      24.29719925 </v>
    </varray>
    <i name="volume">   1251.60109432 </i>
    <varray name="rec_basis" >
     <v>       0.12966133       0.07486000       0.00000000 </v>
     <v>       0.00000000       0.14972000       0.00000000 </v>
     <v>       0.00000000       0.00000000       0.04115701 </v>
    </varray>
   </crystal>
   <varray name="positions" >
    <v>       0.33333055       0.66666952       0.99998117 </v>
    <v>       0.33333155       0.99999968       0.99998127 </v>
    <v>       0.00000034       0.66666851       0.99998127 </v>
    <v>       0.00000106       0.99999894       0.99998137 </v>
    <v>       0.33333374       0.33333358       0.99998160 </v>
    <v>       0.66666645       0.66666631       0.99998160 </v>
    <v>       0.66666550       0.99999855       0.99998166 </v>
    <v>       0.00000144       0.33333452       0.99998166 </v>
    <v>       0.66666864       0.33333139       0.99998187 </v>
    <v>       0.44444232       0.22222301       0.08654002 </v>
    <v>       0.77777700       0.55555767       0.08654002 </v>
    <v>       0.11110840       0.55555772       0.08654003 </v>
    <v>       0.44444228       0.88889164       0.08654003 </v>
    <v>       0.44444159       0.55555839       0.08654015 </v>
    <v>       0.77777882       0.22222117       0.08654017 </v>
    <v>       0.11110945       0.88889061       0.08654046 </v>
    <v>       0.11110991       0.22222219       0.08654066 </v>
    <v>       0.77777783       0.88889014       0.08654066 </v>
    <v>       0.22238208       0.11095002       0.17235486 </v>
    <v>       0.88942741       0.77865264       0.17276865 </v>
    <v>       0.88871026       0.11100868       0.17253784 </v>
    <v>       0.22240813       0.77798141       0.17322457 </v>
    <v>       0.55468361       0.44390434       0.17276916 </v>
    <v>       0.55535517       0.11092145       0.17322472 </v>
    <v>       0.88928801       0.44404591       0.17288461 </v>
    <v>       0.22232377       0.44462266       0.17253829 </v>
    <v>       0.55543779       0.77789693       0.17319975 </v>
    <v>       0.33327013       0.66648057       0.25890953 </v>
    <v>       0.33359985       0.99973613       0.25889569 </v>
    <v>       0.99972511       0.66652475       0.25832033 </v>
    <v>       0.33684815       0.33563927       0.25789945 </v>
    <v>       0.66678421       0.66654856       0.25810686 </v>
    <v>       0.99769341       0.99648650       0.25789968 </v>
    <v>       0.66685656       0.00006161       0.25891013 </v>
    <v>       0.99842672       0.33490449       0.25812876 </v>
    <v>       0.66681028       0.33360398       0.25832083 </v>
    <v>       0.13333644       0.19999566       0.34443479 </v>
   </varray>
  </structure>
  <varray name="forces" >
   <v>      -0.00151133      -0.00134033       0.09303094 </v>
   <v>       0.00175225      -0.00101166       0.09809382 </v>
   <v>       0.00659355       0.00408130       0.09113364 </v>
   <v>      -0.00193359      -0.01096576       0.10631984 </v>
   <v>       0.00852983       0.00715742       0.10631984 </v>
   <v>      -0.00524191       0.00302642       0.08834347 </v>
   <v>       0.00040509       0.00197901       0.09303094 </v>
   <v>      -0.00885645       0.00511327       0.11118886 </v>
   <v>      -0.00023773      -0.00775083       0.09113364 </v>
   <v>       0.02381975      -0.00237690      -0.12874300 </v>
   <v>      -0.00064911       0.00037477      -0.05161279 </v>
   <v>      -0.00688160       0.01840955      -0.10657119 </v>
   <v>      -0.00084970       0.00049057      -0.03900346 </v>
   <v>       0.00720947       0.01848103      -0.11593769 </v>
   <v>      -0.01938394      -0.00324513      -0.10657119 </v>
   <v>       0.01396833      -0.01944005      -0.12874300 </v>
   <v>      -0.00399372       0.00230578      -0.16004880 </v>
   <v>      -0.01240031      -0.01548409      -0.11593769 </v>
   <v>       0.00036740      -0.00021212       0.00458753 </v>
   <v>      -0.00119468       0.00560428       0.00235378 </v>
   <v>       0.00224020       0.00207017       0.00510410 </v>
   <v>      -0.00641484       0.00117704       0.00354198 </v>
   <v>      -0.00545079      -0.00176752    <energy>
   <i name="e_fr_energy">   -128.14345108 </i>
   <i name="e_wo_entrp">   -128.10395510 </i>
   <i name="e_0_energy">     -0.07899197 </i>
  </energy>
  <time name="totalsc">  647.55  649.13</time>
 </calculation>
00653238      -0.00377147      -0.00306862 </v>
   <v>       0.00034354       0.01344798      -0.00511470 </v>
   <v>      -0.05656740       0.03265921       0.07769677 </v>
   <v>       0.00409700      -0.00723744      -0.00983491 </v>
   <v>       0.11807721       0.09781747      -0.19102875 </v>
   <v>       0.00139306      -0.00080428        <energy>
   <i name="e_fr_energy">   -128.18629441 </i>
   <i name="e_wo_entrp">   -128.14675648 </i>
   <i name="e_0_energy">     -0.07907586 </i>
  </energy>
  <time name="totalsc">  647.57  649.16</time>
 </calculation>
1631       0.00007062      -0.00983491 </v>
   <v>      -0.15626710       0.09022085       0.15817521 </v>
  </varray>
  <varray name="stress" >
   <v>     -13.30606290       0.43646651      -0.40590362 </v>
   <v>       0.43646651     -12.80207478       0.23434856 </v>
   <v>      -0.40590323       0.23434834      -2.53803812 </v>
  </varray>
  <energy>
   <i name="e_fr_energy">   -128.18984078 </i>
   <i name="e_wo_entrp">   -128.15042166 </i>
   <i name="e_0_energy">     -0.07883825 </i>
  </energy>
  <time name="t  <scstep>
   <time name="dav">   22.02   22.07</time>
   <time name="total">   23.37   23.43</time>
   <dipole>
    <v name="dipole"   <time name="total">   2   <time name="total">   23.43   23.48</time>
   <dipole>
    <v name="dipole">      0.00000000       0.00000000      -0.19584103 </v>
    <i name="Tr[quadrupol]">  -3874.48740153 </i>
    <i name="Echarged">      0.00000000 </i>
    <i name="Edipol_quadrupol">      0.00000000 </i>
    <i name="Eion">      0.00000000 </i>
   </dipole>
   <energy>
    <i name="alphaZ">   1387.99242739 </i>
    <i name="ewald"> 209155.76058370 </i>
    <i name="hartreedc">-256400.02622191 </i>
    <i name="XCdc">   1517.60886362 </i>
    <i name="pawpsdc">  40250.88116959 </i>
    <i name="pawaedc"> -45431.98058568 </i>
    <i name="eentropy">     -0.07889033 </i>
    <i name="bandstr">  -1797.16939602 </i>
    <i name="atom">  51188.86509581 </i>
    <i name="e_fr_energy">   -128.14695382 </i>
    <i name="e_wo_entrp">    <time name="dav">   18.65   18.70</time>
   <time name="tota   <time name="   <time name="dav">   26.   <time name="dav   <time name="total">   2   <time name="total">   27.66   27.72</time>
   <dipole>
    <v name="dipole">      0.00000000       0.00000000      -0.20038469 </v>
    <i name="Tr[quadrupol]">  -3874.47903213 </i>
    <i name="Echarged">      0.00000000 </i>
    <i name="Edipol_quadrupol">      0.00000000 </i>
    <i name="Eion">      0.00000000 </i>
   </dipole>
   <energy>
    <i name="e_fr_energy">   -128.14703818 </i>
    <i name="e_wo_entrp">   -128.06797180 </i>
    <i name="e_0_energy">   -128.10750499 </i>
   </energ   <time name="dav">   21.   <time name="dav   <time name="total">   2   <time name="total">   22.68   22.74</time>
   <dipole>
    <v name="dipole">      0.00000000       0.00000000      -0.19754286 </v>
    <i name="Tr[quadrupol]">  -3874.48946939 </i>
    <i name="Echarged">      0.00000000 </i>
    <i name="Edipol_quadrupol">      0.00000000 </i>
    <i name="Eion">      0.00000000 </i>
   </dipole>
   <energy>
    <i name="e_fr_energy">   -128.14696256 </i>
    <i name="e_wo_entrp">   -128.06803691 </i>
    <i name="e_0_energy">   -128.10749974 </i>
   </energ   <time name="dav">   17.   <time name="dav">   17.09   17.13</time>
   <time name="total">   17.24   17.28</time>
   <dipole>
    <v name="dipole">      0.00000000       0.00000000      -0.19796099 </v>
    <i name="Tr[quadrupol]">  -3874.49387834 </i>
    <i name="Echarged">      0.00000000 </i>
    <i name="Edipol_quadrupol">      0.00000000 </i>
    <i name="Eion">      0.00000000 </i>
   </dipole>
   <energy>
    <i name="alphaZ">   1387.79610240 </i>
    <i name="ewald"> 209155.76058370 </i>
    <i name="hartreedc">-256400.13335783 </i>
    <i name="XCdc">   1517.60728048 </i>
    <i name="pawpsdc">  40250.78721995 </i>
    <i name="pawaedc"> -45431.87209277 </i>
    <i name="eentropy">     -0.07893569 </i>
    <i name="bandstr">  -1796.87886364 </i>
    <i name="atom">  51188.86509581 </i>
    <i name="e_fr_energy">   -128.14696759 </i>
    <i name="e_wo_entrp">   -128.06803190 </i>
    <i name="e_0_energy">   -128.10749975 </i>  <structure>
   <crystal>  <structure>
   <crystal>
    <varray name="basis" >
     <v>       7.71239996       0.00000000       0.00000000 </v>
     <v>      -3.85619998       6.67913429       0.00000000 </v>
     <v>       0.00000000       0.00000000      24.29719925 </v>
    </varray>
    <i name="volume">   1251.60109432 </i>
    <varray name="rec_basis" >
     <v>       0.12966133       0.07486000       0.00000000 </v>
     <v>       0.00000000       0.14972000       0.00000000 </v>
     <v>       0.00000000       0.00000000       0.04115701 </v>
    </varray>
   </crystal>
   <varray name="positions" >
    <v>       0.33333055       0.66666952       0.99998117 </v>
    <v>       0.33333155       0.99999968       0.99998127 </v>
    <v>       0.00000034       0.66666851       0.99998127 </v>
    <v>       0.00000106       0.99999894       0.99998137 </v>
    <v>       0.33333374       0.33333358       0.99998160 </v>
    <v>       0.66666645       0.66666631       0.99998160 </v>
    <v>       0.66666550       0.99999855       0.99998166 </v>
    <v>       0.00000144       0.33333452       0.99998166 </v>
    <v>       0.66666864       0.33333139       0.99998187 </v>
    <v>       0.44444232       0.22222301       0.08654002 </v>
    <v>       0.77777700       0.55555767       0.08654002 </v>
    <v>       0.11110840       0.55555772       0.08654003 </v>
    <v>       0.44444228       0.88889164       0.08654003 </v>
    <v>       0.44444159       0.55555839       0.08654015 </v>
    <v>       0.77777882       0.22222117       0.08654017 </v>
    <v>       0.11110945       0.88889061       0.08654046 </v>
    <v>       0.11110991       0.22222219       0.08654066 </v>
    <v>       0.77777783       0.88889014       0.08654066 </v>
    <v>       0.22234352       0.11098858       0.17225894 </v>
    <v>       0.88947032       0.77854247       0.17279917 </v>
    <v>       0.88893252       0.11110587       0.17262463 </v>
    <v>       0.22228699       0.77803621       0.17314171 </v>
    <v>       0.55479378       0.44386143       0.17279968 </v>
    <v>       0.55530037       0.11104259       0.17314185 </v>
    <v>       0.88919045       0.44414347       0.17303292 </v>
    <v>       0.22222659       0.44440039       0.17262507 </v>
    <v>       0.55547096       0.77786376       0.17309114 </v>
    <v>       0.33334137       0.66656298       0.25869254 </v>
    <v>       0.33395352       0.99938246       0.25869242 </v>
    <v>       0.99978616       0.66654535       0.25851908 </v>
    <v>       0.33655743       0.33609076       0.25786608 </v>
    <v>       0.66673037       0.66660239       0.25809385 </v>
    <v>       0.99724191       0.99677721       0.25786631 </v>
    <v>       0.66677415       0.99999037       0.25869314 </v>
    <v>       0.99886987       0.33446134       0.25841554 </v>
    <v>       0.66678968       0.33354293       0.25851957 </v>
    <v>       0.15555629       0.17777581       0.34454870 </v>
   </varray>
  </structure>
  <varray name="forces" >
   <v>      -0.00309937      -0.00199862       0.09105098 </v>
   <v>       0.00393015      -0.00226907       0.10119606 </v>
   <v>       0.00562195       0.00393773       0.09424784 </v>
   <v>      -0.00430841      -0.00991527       0.10455913 </v>
   <v>       0.00643267       0.00868883       0.10455913 </v>
   <v>      -0.00344035       0.00198629       0.08754654 </v>
   <v>       0.00018117       0.00368344       0.09105098 </v>
   <v>      -0.00734337       0.00423970       0.11216710 </v>
   <v>      -0.00059920      -0.00683761       0.09424784 </v>
   <v>       0.02344786       0.00063914      -0.13812763 </v>
   <v>      -0.00167285       0.00096582      -0.05182499 </v>
   <v>      -0.00558641       0.01401239      -0.09388165 </v>
   <v>      -0.00147650       0.00085246      -0.04900899 </v>
   <v>       0.00625431       0.01418004      -0.11169303 </v>
   <v>      -0.01492829      -0.00216822      -0.09388165 </v>
   <v>       0.01117042      -0.02062601      -0.13812763 </v>
   <v>      -0.00817063       0.00471732      -0.16115844 </v>
   <v>      -0.00915311      -0.01250641      -0.11169303 </v>
   <v>       0.00317922      -0.00183553      -0.00008818 </v>
   <v>      -0.00169649       0.00565775       0.00051885 </v>
   <v>      -0.00017171       0.00239070      -0.00572952 </v>
   <energy>
   <i name="e_fr_energy">   -128.18714161 </i>
   <i name="e_wo_entrp">   -128.14757631 </i>
   <i name="e_0_energy">     -0.07913061 </i>
  </energy>
  <time name="totalsc">  108.36  108.63</time>
 </calculation>
  <time name="totalsc">  108.34  108.61</time>
 </calculation>
664      -0.00572952 </v>
   <v>       0.00778014      -0.00449186       0.00395147 </v>
   <v>      -0.00094966       0.01913829      -0.01198947 </v>
   <v>      -0.11796359       0.06810631       0.15976601 </v>
   <v>       0.00073377      -0.01813153      -0.01340535 </v>
   <v>       0.13730014       0.17444572      -0.31339501 </v>
   <v>       0.00106537      -0.00061509       0.00502670 </v>
   <v>      -0.08242436      -0.20612827      -0.31339501 </v>
   <v>      -0.01704908      -0.00874672      -0.01198947 </v>
   <v>       0.14941720      -0.08626606       0.22902005 </v>
   <v>       0.01606925       0.00843030      -0.01340535 </v>
   <v>      -0.07626537       0.04403183       0.33032405 </v>
  </varray>
  <varray name="stress" >
   <v>     -13.18350211       0.73565288      -0.22431886 </v>
   <v>       0.73565288     -12.33404334       0.12951055 </v>
   <v>      -0.22431864       0.12951043      -1.  <energy>
   <i name="e_fr_energy">    <i name="e_fr_ener   <i name="e_wo_entrp">     <i name="e_wo_ent   <i name="e_0_energy">     <i name="e_0_ener  </energy>
  <time name="totalsc">  1  <time name="totalsc">  1   <time name="dav">   21.32   21.37</time>
   <time name="total">   22.63   22.69</time>
   <dipole>
    <v name="dipole">      0.00000000       0.00000000      -0.19896558 </v>
    <i name="Tr[quadrupol]">  -3876.35426623 </i>
    <i name="Echarged">      0.00000000 </i>
    <i name="Edipol_quadrupol">      0.00000000 </i>
    <i name="Eion">      0.00000000 </i>
   </dipole>
   <energy>
    <i name="alphaZ">   1387.70342758 </i>
    <i name="ewald"> 209147.70287501 </i>
    <i name="hartreedc">-256392.45678183 </i>
    <i name="XCdc">   1517.58333098 </i>
    <i name="pawpsdc">  40249.74521812 </i>
    <i name="pawaedc"> -45430.79492486 </i>
    <i name="eentropy">     -0.07878612 </i>
    <i name="bandstr">  -1796.46685309 </i>
    <i name="atom">  51188.86509581 </i>
    <i name="e_fr_energy">   -128.19739839 </i>
    <i name="e_wo_entrp">   -128.11861227 </i>
    <i name="e_0_energy">   -128.15800533 </i>
   </energy>
  </scstep>
  <scstep>
   <time name="dav">   22.19   22.24<   <tim   <time name="total">   23.52   23.5   <time name="total">   23.67   23.73</time>
   <dipole>
    <v name="dipole">      0.00000000       0.00000000      -0.19749596 </v>
    <i name="Tr[quadrupol]">  -3874.94063594 </i>
    <i name="Echarged">      0.00000000 </i>
    <i name="Edipol_quadrupol">      0.00000000 </i>
    <i name="Eion">      0.00000000 </i>
   </dipole>
   <energy>
    <i name="e_fr_energy">   -128.16280633 </i>
    <i name="e_wo_entrp">   -128.08405698 </i>
    <i name="e_0_energy">   -128.12343166 </i>   <time name="dav">   22.62   22.68</time>
   <time name="total">   23.88   23.94</time>
   <dipole>
    <v name="dipole">      0.00000000       0.00000000      -0.20073018 </v>
    <i name="Tr[quadrupol]">  -3876.35190657 </i>
    <i name="Echarged">      0.00000000 </i>
    <i name="Edipol_quadrupol">      0.00000000 </i>
    <i name="Eion">      0.00000000 </i>
   </dipole>
   <energy>
    <i name="e_fr_energy">   -128.19800766 </i>
    <i name="e_wo_entrp">   -128.11914709 </i>
    <i name="e_0_energy">   -128.15857737 </i>
   </energy>
  </scstep>
  <scstep>
   <time name="dav">   22.76   22.81</time>
   <time name="total">   23.94   23.99</time>
   <dipole>
    <v name="dipole">      0.00000000       0.00000000      -0.19696602 </v>
    <i name="Tr[quadrupol]">  -3876.36984566 </i>
    <i name="Echarged">      0.00000000 </i>
    <i name="Edipol_quadrupol">      0.00000000 </i>
    <i name="Eion">      0.00000000 </i>
   </dipole>
   <energy>
    <i name="e_fr_energy">   -128.19799087 </i>
    <i name="e_wo_entrp">   -128.11933119 </i>
    <i name="e_0_energy">   -128.15866103 </i>
   </energy>
  </scstep>
  <scstep>
   <time name="dav">   23.94   23.99</time>
   <time name="total">   25.11   25.17</time>
   <dipole>
    <v name="dipole">      0.00000000       0.00000000      -0.20154548 </v>
    <i name="Tr[quadrupol]">  -3876.39500810 </i>
    <i name="Echarged">      0.00000000 </i>
    <i name="Edipol_quadrupol">      0.00000000 </i>
    <i name="Eion">      0.00000000 </i>
   </dipole>
   <energy>
    <i name="e_fr_energy">   -128.19790907 </i>
    <i name="e_wo_entrp">   -128.11906487 </i>
    <i name="e_0_energy">   -128.15848697 </i>
   </energy>
  </scstep>
  <scstep>
   <time name="dav">   27.68   27.75</time>
   <time name="total">   28.95   29.02</time>
   <dipole>
    <v name="dipole">      0.00000000       0.00000000      -0.19948995 </v>
    <i name="Tr[quadrupol]">  -3876.43739740 </i>
    <i name="Echarged">      0.00000000 </i>
    <i name="Edipol_quadrupol">      0.00000000 </i>
    <i name="Eion">      0.00000000 </i>
   </dipole>
   <energy>
    <i name="e_fr_energy">   -128.19789657 </i>
    <i name="e_wo_entrp">   -128.11915849 </i>
    <i name="e_0_energy">   -128.15852753 </i>
   </energy>
  </scstep>
  <scstep>
   <time name="dav">   21.96   22.02</time>
   <time name="total">   22.14   22.20</time>
   <dipole>
    <v name="dipole">      0.00000000       0.00000000      -0.20024300 </v>
    <i name="Tr[quadrupol]">  -3876.43664343 </i>
    <i name="Echarged">      0.00000000 </i>
    <i name="Edipol_quadrupol">      0.00000000 </i>
    <i name="Eion">      0.00000000 </i>
   </dipole>
   <energy>
    <i name="alphaZ">   1389.63006908 </i>
    <i name="ewald"> 209147.70287501 </i>
    <i name="hartreedc">-256392.61370482 </i>
    <i name="XCdc">   1517.58639115 </i>
    <i name="pawpsdc">  40249.00292001 </i>   <time name="dav">   20.76   20.81</time>
   <time name="total">   20.93   20.98</time>
   <dipole>
    <v name="dipole">      0.00000000       0.00000000      -0.20046853 </v>
    <i name="Tr[quadrupol]">  -3875.02993457 </i>
    <i name="Echarged">      0.00000000 </i>
    <i name="Edipol_quadrupol">      0.00000000 </i>
    <i name="Ei  <structure>
   <crystal>
    <varray name="basis" >
     <v>       7.71239996       0.00000000       0.00000000 </v>
     <v>      -3.85619998       6.67913429       0.00000000 </v>
     <v>       0.00000000       0.00000000      24.29719925 </v>
    </varray>
    <i name="volume">   1251.60109432 </i>
    <varray name="rec_basis" >
     <v>       0.12966133       0.07486000       0.00000000 </v>
     <v>       0.00000000       0.14972000       0.00000000 </v>
     <v>       0.00000000       0.00000000       0.04115701 </v>
    </varray>
   </crystal>
   <varray name="positions" >
    <v>       0.33  <structure>
   <crystal>
    <varray name="basis" >
     <v>       7.71239996       0.00000000       0.00000000 </v>
     <v>      -3.85619998       6.67913429       0.00000000 </v>
     <v>       0.00000000       0.00000000      24.29719925 </v>
    </varray>
    <i name="volume">   1251.60109432 </i>
    <varray name="rec_basis" >
     <v>       0.12966133       0.07486000       0.00000000 </v>
     <v>       0.00000000       0.14972000       0.00000000 </v>
     <v>       0.00000000       0.00000000       0.04115701 </v>
    </varray>
   </crystal>
   <varray name="positions" >
    <v>       0.33333055       0.66666952       0.99998117 </v>
    <v>       0.33333155       0.99999968       0.99998127 </v>
    <v>       0.00000034       0.66666851       0.99998127 </v>
    <v>       0.00000106       0.99999894       0.99998137 </v>
    <v>       0.33333374       0.33333358       0.99998160 </v>
    <v>       0.66666645       0.66666631       0.99998160 </v>
    <v>       0.66666550       0.99999855       0.99998166 </v>
    <v>       0.00000144       0.33333452       0.99998166 </v>
    <v>       0.66666864       0.33333139       0.99998187 </v>
    <v>       0.44444232       0.22222301       0.08654002 </v>
    <v>       0.77777700       0.55555767       0.08654002 </v>
    <v>       0.11110840       0.55555772       0.08654003 </v>
    <v>       0.44444228       0.88889164       0.08654003 </v>
    <v>       0.44444159       0.55555839       0.08654015 </v>
    <v>       0.77777882       0.22222117       0.08654017 </v>
    <v>       0.11110945       0.88889061       0.08654046 </v>
    <v>       0.11110991       0.22222219       0.08654066 </v>
    <v>       0.77777783       0.88889014       0.08654066 </v>
    <v>       0.22231806       0.11101404       0.17216152 </v>
    <v>       0.88952251       0.77846385       0.17282613 </v>
    <v>       0.88916549       0.11121095       0.17270397 </v>
    <v>       0.22214798       0.77812121       0.17308540 </v>
    <v>       0.55487241       0.44380925       0.17282664 </v>
    <v>       0.55521538       0.11118160       0.17308554 </v>
    <v>       0.88911085       0.44422307       0.17317612 </v>
    <v>       0.22212150       0.44416743       0.17270442 </v>
    <v>       0.55552634       0.77780838       0.17299328 </v>
    <v>       0.33346051       0.66674791       0.25845312 </v>
    <v>       0.33377699       0.99955898       0.25886525 </v>
    <v>       0.99979210       0.66645166       0.25869945 </v>
    <v>       0.33725599       0.33768901       0.25734095 </v>
    <v>       0.66667551       0.66665726       0.25808749 </v>
    <v>       0.99564366       0.99607866       0.25734118 </v>
    <v>       0.66658923       0.99987123       0.25845372 </v>
    <v>       0.99966387       0.33366734       0.25893463 </v>
    <v>       0.66688337       0.33353700       0.25869995 </v>
    <v>       0.17751533       0.15581677       0.34518633 </v>
   </varray>
  </structure>
  <varray name="forces" >
   <v>      -0.00358544      -0.00196207       0.08917689 </v>
   <v>       0.00661611      -0.00381981       0.10333723 </v>
   <v>       0.00378471       0.00262889       0.09738070 </v>
   <v>      -0.00582956      -0.00785788       0.10360620 </v>
   <v>       0.00389034       0.00897749       0.10360620 </v>
   <v>      -0.00088358       0.00051014       0.08723894 </v>
   <v>      -0.00009352       0.00408612       0.08917689 </v>
   <v>      -0.00453642       0.00261911       0.11099640 </v>
   <v>      -0.00038433      -0.00459210       0.09738070 </v>
   <v>       0.02326974       0.00372962      -0.14686107 </v>
   <v>      -0.00232448       0.00134204      -0.05464409 </v>
   <v>      -0.00332071       0.00939184      -0.08097026 </v>
   <v>      -0.00177797       0.00102651      -0.05942747 </v>
   <v>       0.00524733       0.01016633      -0.10769185 </v>
   <v>      -0.00979393      -0.00182010      -0.08097026 </v>
   <v>       0.00840492      -0.02201699      -0.14686107 </v>
   <v>      -0.01225077       0.00707299      -0.16380045 </v>
   <v>      -0.00618064      -0.00962749      -0.10769185 </v>
   <v>       0.01049996      -0.00606215      -0.01018574 </v>
   <v>       0.00067398      -0.01505864      -0.02591466 </v>
   <v>      -0.01022636       0.01368781      -0.01342660 </v>
   <v>      -0.00553663       0.01406573       0.02278265 </v>
   <v>       0.01337816       0.00694563      -0.02591466 </v>
   <v>      -0.01494960      -0.00223800       0.02278265 </v>
   <v>       0.01126934      -0.00650635       0.01121112 </v>
   <v>      -0.01696717       0.00201238      -0.01342660 </v>
   <v>       0.00339556      -0.00196043       0.00126758 </v>
   <v>      -0.01509567       0.02966435      -0.01228787 </v>
   <v>      -0.13418015       0.07746894       0.19274185 </v>
   <v>       0.00975642      -0.02690098      -0.00555712 </v>
   <v>       0.04217986       0.08483503      -0.15302668 </v>
   <v>     <energy>
   <i name="e_fr_energy">   -128.19789887 </i>
   <i name="e_wo_entrp">   -128.15851714 </i>
   <i name="e_0_energy">     -0.07876346 </i>
  </energy>
  <time name="totalsc">  206.18  206.69</time>
 </calculation>
  <time name="totalsc">  206.15  206.66</time>
 </calculation>
 -0.00555712 </v>
   <v>       0.06139444      -0.03544609       0.10137070 </v>
  </varray>
  <varray name="stress" >
   <v>     -13.29637402       0.67164792       0.17070015 </v>
   <v>       0.67164792     -12.52082181      -0.09855378 </v>
   <v>       0.17070052      -0.09855399      -2.29114656 </v>
  </varray>
  <energy>
   <i name="e_fr_energy">   -128.16259956  <ene   <i   <i name="e_fr_energy">   -128.16418742   <i    <i name="e_wo_entrp">   -128.12478846  </en   <i   <time name="totalsc">  206.15  206.66</time>
 </ca  <time name="totalsc">  2   <time name="   <time name="dav">   21.51    <time name="   <time name="total">   22.85   22.90</time>
   <dipole>
    <v name="dipole">      0.00000000       0.00000000      -0.20043059 </v>
    <i name="Tr[quadrupol]">  -3875.39443707 </i>
    <i name="Echarged">      0.00000000 </i>
    <i name="Edipol_quadrupol">      0.00000000 </i>
    <i name="Eion">      0.00000000 </i>
   </dipole>
   <energy>
    <i name="alphaZ">   1389.61830044 </i>
    <i name="ewald"> 209074.92217250 </i>
    <i name="hartreedc">-256320.38732613 </i>
    <i name="XCdc">   1517.54418581 </i>
    <i name="pawpsdc">  40249.46071108 </i>
    <i name="pawaedc"> -45430.46265468 </i>
    <i name="eentropy">     -0.07914189 </i>
    <i name="bandstr">  -1797.65344077 </i>
    <i name="atom">  51188.86509581 </i>
    <i name="e_fr_energy">   -128.17209783 </i>
    <i name="e_wo_entrp">   -128.09295595 </i>
    <i name="e_0_energy">   -128.13252689 </i>
   </energy>
  </scst   <time name="   <time name="dav">   22.33    <time name="   <time name="total">   23.59   23.64</time>
   <dipole>
    <v name="dipole">      0.00000000       0.00000000      -0.19957705 </v>
    <i name="Tr[quadrupol]">  -3875.39112495 </i>
    <i name="Echarged">      0.00000000 </i>
    <i name="Edipol_quadrupol">      0.00000000 </i>
    <i name="Eion">      0.00000000 </i>
   </dipole>
   <energy>
    <i name="e_fr_energy">   -128.17602893 </i>
    <i name="e_wo_entrp">   -128.09708498 </i>
    <i name="e_0_energy">   -128.13655696 </i>
   </energy>
  </scst   <time name="   <time name="dav">   22.60   22.66</time>
   <time name="total">   23.90   23.96</time>
   <dipole>
    <v name="dipole">      0.00000000       0.00000000      -0.19895870 </v>
    <i name="Tr[quadrupol]">  -3875.39606957 </i>
    <i name="Echarged">      0.00000000 </i>
    <i name="Edipol_quadrupol">      0.00000000 </i>
    <i name="Eion">      0.00000000 </i>
   </dipole>
   <energy>
    <i name="e_fr_energy">   -128.17579360 </i>
    <i name="e_wo_entrp">   -128.09668603 </i>
    <i name="e_0_energy">   -128.13623981 </i>
   </energy>
  </scst   <time name="dav">   26.96   27.02</time>
   <time name="total">   28.22   28.28</time>
   <dipole>
    <   <time name="total">   2   <time name="total">   28.17   28.24</time>
   <dipole>
    <v name="dipole">      0.00000000       0.00000000      -0.20080821 </v>
    <i name="Tr[quadrupol]">  -3876.71645760 </i>
    <i name="Echarged">      0.00000000 </i>
    <i name="Edipol_quadrupol">      0.00000000 </i>
    <i name="Eion">      0.00000000 </i>
   </dipole>
   <energy>
    <i name="e_fr_energy">   -128.20523872 </i>
    <i name="e_wo_entrp">   -128.12633871   <time name="   <time name="dav">   23.57    <time name="   <time name="total">   24.95   25.01</time>
     <time name="total">   2   <time name="total">   23.77   23.83</time>
   <dipole>
    <v name="dipole">      0.00000000       0.00000000      -0.20226246 </v>
    <i name="Tr[quadrupol]">  -3876.74509425 </i>
    <i name="Echarged">      0.00000000 </i>
    <i name="Edipol_quadrupol">      0.00000000 </i>
    <i name="Eion">      0.00000000 </i>
   </dipole>
   <energy>
    <i name="e_fr_energy">   -128.20525105 </i>
    <i name="e_wo_entrp">   -128.12629778   <time name="   <time name="dav">   23.72   23.78</time>
   <time name="total">   24.97   25.03</time>
   <dipole>
    <v name="dipole">      0.00000000       0.00000000      -0.20051646 </v>
    <i name="Tr[quadrupol]">  -3875.47358854 </i>
    <i name="Echarged">      0.00000000 </i>
    <i name="Edipol_quadrupol">      0.00000000 </i>
    <i name="Eion">      0.00000000 </i>
   </dipole>
   <energy>
    <i name="e_fr_energy">   -128.17526712 </i>
    <i name="e_wo_entrp">   -128.09617482 </i>
    <i name="e_0_energy">   -128.13572097 </i>
   </energy>
  </scst   <time name="   <time name="dav">   22.73   22.79</time>
   <time name="total">   24.07   24.13</time>
   <dipole>
    <v name="dipole">      0.00000000       0.00000000      -0.20113665 </v>
    <i name="Tr[quadrupol]">  -3875.47357469 </i>
    <i name="Echarged">      0.00000000 </i>
    <i name="Edipol_quadrupol">      0.00000000 </i>
    <i name="Eion">      0.00000000 </i>
   </dipole>
   <energy>
    <i name="e_fr_energy">   -128.17529267 </i>
    <i name="e_wo_entrp">   -128.09617525 </i>
    <i name="e_0_energy">   -128.13573396 </i>
   </energy>
  </scst   <time name="   <time name="dav">   19.67   19.71</time>
   <time name="total">   19.83   19.88</time>
   <dipole>
    <v name="dipole">      0.00000000       0.00000000      -0.20130227 </v>
    <i name="Tr[quadrupol]">  -3875.50866880 </i>
    <i name="Echarged">      0.00000000 </i>
    <i name="Edipol_quadrupol">      0.00000000 </i>
    <i name="Eion">      0.00000000 </i>
   </dipole>
   <energy>
    <i name="alphaZ">   1392.63013008 </i>
    <i name="ewald"> 209074.92217250 </i>
    <i name="hartreedc">-256320.64950558 </i>
    <i name="XCdc">   1517.55103529 </i>
    <i name="pawpsdc">  40247.55036710 </i>
    <i name="pawaedc"> -45428.45588401 </i>
    <i name="eentropy">     -0.07912347 </i>
    <i name="bandstr">  -1800.50958271 </i>
    <i name="atom">  51188.86509581 </i>
    <i name="e_fr_energy">   -128.17529498 </i>
    <i name="e_wo_entrp">   -128.09617151 </i>
    <i name="e_0_energy">   -128.13573325 </i>
   </energ  <structure>
   <structure>
   <crystal>
    <varray name="bas  <structure>
   <crystal>
    <varray name="basis" >
     <v>       7.71239996       0.00000000       0.00000000 </v>
     <v>      -3.85619998       6.67913429       0.00000000 </v>
     <v>       0.00000000       0.00000000      24.29719925 </v>
    </varray>
    <i name="volume">   1251.60109432 </i>
    <varray name="rec_basis" >
     <v>       0.12966133       0.07486000       0.00000000 </v>
     <v>       0.00000000       0.14972000       0.00000000 </v>
     <v>       0.00000000       0.00000000       0.04115701 </v>
    </varray>
   </crystal>
   <varray name="positions" >
    <v>       0.33333055       0.66666952       0.99998117 </v>
    <v>       0.33333155       0.99999968       0.99998127 </v>
    <v>       0.00000034       0.66666851       0.99998127 </v>
    <v>       0.00000106       0.99999894       0.99998137 </v>
    <v>       0.33333374       0.33333358       0.99998160 </v>
    <v>       0.66666645       0.66666631       0.99998160 </v>
    <v>       0.66666550       0.99999855       0.99998166 </v>
    <v>       0.00000144       0.33333452       0.99998166 </v>
    <v>       0.66666864       0.33333139       0.99998187 </v>
    <v>       0.44444232       0.22222301       0.08654002 </v>
    <v>       0.77777700       0.55555767       0.08654002 </v>
    <v>       0.11110840       0.55555772       0.08654003 </v>
    <v>       0.44444228       0.88889164       0.08654003 </v>
    <v>       0.44444159       0.55555839       0.08654015 </v>
    <v>       0.77777882       0.22222117       0.08654017 </v>
    <v>       0.11110945       0.88889061       0.08654046 </v>
    <v>       0.11110991       0.22222219       0.08654066 </v>
    <v>       0.77777783       0.88889014       0.08654066 </v>
    <v>       0.22245098       0.11088112       0.17219784 </v>
    <v>       0.88935955       0.77832002       0.17267545 </v>
    <v>       0.88892565       0.11137895       0.17257679 </v>
    <v>       0.22225513       0.77822099       0.17322407 </v>
    <v>       0.55501623       0.44397221       0.17267596 </v>
    <v>       0.55511559       0.11107445       0.17322422 </v>
    <v>       0.88936840       0.44396552       0.17316040 </v>
    <v>       0.22195351       0.44440727       0.17257723 </v>
    <v>       0.55554836       0.77778635       0.17309853 </v>
    <v>       0.33346669       0.66712768       0.25861927 </v>
    <v>       0.33249248       1.00084350       0.25962173 </v>
    <v>       0.99970205       0.66592323       0.25846220 </v>
    <v>       0.33949652       0.33862352       0.25655559 </v>
    <v>       0.66674924       0.66658353       0.25812836 </v>
    <v>       0.99470915       0.99383813       0.25655582 </v>
    <v>       0.66620946       0.99986505       0.25861987 </v>
    <v>       1.00080013       0.33253108       0.25978394 </v>
    <v>       0.66741180       0.33362704       0.25846269 </v>
    <v>       0.15538103       0.17795107       0.34566850 </v>
   </varray>
  </structure>
  <varray name="forces" >
   <v>      -0.00233618      -0.00151569       0.09220157 </v>
   <v>       0.00453448      -0.00261798       0.10200265 </v>
   <v>       0.00537331       0.00272146       0.09424871 </v>
   <v>      -0.00302732      -0.00920867       0.10598591 </v>
   <v>       0.00646128       0.00722608       0.10598591 </v>
   <v>      -0.00319129       0.00184249       0.08889317 </v>
   <v>       0.00014454       0.00278103       0.09220157 </v>
   <v>      -0.00663631       0.00383147       0.11329960 </v>
   <v>       0.00032980      -0.00601415       0.09424871 </v>
   <v>       0.02584931      -0.00167478      -0.14221642 </v>
   <v>       0.00264263      -0.00152572      -0.05597104 </v>
   <v>      -0.00736232       0.01409887      -0.08843211 </v>
   <v>      -0.00311074       0.00179599      -0.04151381 </v>
   <v>       0.00576263       0.01584634      -0.11598390 </v>
   <v>      -0.01589114      -0.00067348      -0.08843211 </v>
   <v>       0.01437506      -0.02154877      -0.14221642 </v>
   <v>      -0.00818724       0.00472690      -0.16497027 </v>
   <v>      -0.01084202      -0.01291375      -0.11598390 </v>
   <v>       0.00970157      -0.00560120      -0.02084638 </v>
   <v>       0.00375653      -0.03061133      -0.04403108 </v>
   <v>      -0.01726681       0.02165946       0.00102110 </v>
   <v>      -0.00151958       0.02017786       0.02408216 </v>
   <v>       0.02838846       0.01205242      -0.04403108 </v>
   <v>      -0.01823433      -0.00877293       0.02408216 </v>
   <v>       0.02974097      -0.01717096       0.03467613 </v>
   <v>      -0.02739105       0.00412377       0.00102110 </v>
   <v>      -0.00070383       0.00040636      -0.00034054 </v>
   <v>      -0.02002187       0.02674716      -0.00027431 </v>
   <v>      -0.06764279       0.03905358       0.06548515 </v>
   <v>       0.02536670      -0.03901960       0.00166350 </v>
   <v>      -0.00980009      -0.02210887       0.02430734 </v>
   <v>       0.00274783      -0.00158646      -0.00090171 </v>
   <v>     <energy>
   <i name="e_fr_energy">   -128.20522877 </i>
   <i name="e_wo_entrp">   -128.16579211 </i>
   <i name="e_0_energy">     -0.07887331 </i>
  </energy>
  <time name="totalsc">  208.22  208.73</time>
 </calculation>
  0.00166350 </v>
   <v>      -0.05778442       0.03336185      -0.12570599 </v>
  </varray>
  <varray name="stress" >
   <v>     -13.34350538       0.62599594      -0.17651568 </v>
   <v>       0.62599594     -12.62066754       0.10191137 </v>
   <v>        <energy>
   <i name="e_f   <i name="e_fr_energy">   -128   <i name="e_w   <i name="e_wo_entrp">   -128   <i name="e_0   <i name="e_0_energy">     -0  </energy>
  <time name="totalsc">  208.24  208.76</time>
 </calculation>
  <time name="totalsc">  2   <time name="dav">   21.   <time name="dav   <time name="total">   2   <time name="total">   22.61   22.67</time>
   <dipole>
    <v name="dipole">      0.00000000       0.00000000      -0.20126424 </v>
    <i name="Tr[quadrupol]">  -3875.11365630 </i>
    <i name="Echarged">      0.00000000 </i>
    <i name="Edipol_quadrupol">      0.00000000 </i>
    <i name="Eion">      0.00000000 </i>
   </dipole>
   <energy>
    <i name="alphaZ">   1393.66293043 </i>
    <i name="ewald"> 209038.95755935 </i>
    <i name="hartreedc">-256284.86453324 </i>
    <i name="XCdc">   1517.53787079 </i>
    <i name="pawpsdc">  40247.58284093 </i>
    <i name="pawaedc"> -45428.47895229 </i>
    <i name="eentropy">     -0.07956966 </i>
    <i name="bandstr">  -1801.36266571 </i>
    <i name="atom">  51188.86509581 </i>
    <i name="e_fr_energy">   -128.17942360 </i>
    <i name="e_wo_entrp">   -128.09985393 </i>
    <i name="e_0_energy">   -128.13963877 </i>
   </energ   <time name="dav">   21.   <time name="dav   <time name="total">   2   <time name="total">   23.24   23.29</time>
   <dipole>
    <v name="dipole">      0.00000000       0.00000000      -0.20159239 </v>
    <i name="Tr[quadrupol]">  -3875.11773080 </i>
    <i name="Echarged">      0.00000000 </i>
    <i name="Edipol_quadrupol">      0.00000000 </i>
    <i name="Eion">      0.00000000 </i>
   </dipole>
   <energy>
    <i name="e_fr_energy">   -128.18085746 </i>
    <i name="e_wo_entrp">   -128.10126645 </i>
    <i name="e_0_energy">   -128.14106196 </i>
   </energ   <time name="dav">   22.   <time name="dav   <time name="total">   2   <time name="total">   23.89   23.95</time>
   <di   <time name="total">   24.05   24.10</time>
   <dipole>
    <v name="dipole">      0.00000000       0.00000000      -0.20021783 </v>
    <i name="Tr[quadrupol]">  -3875.13631387 </i>
    <i name="Echarged">      0.00000000 </i>
    <i name="Edipol_quadrupol">      0.00000000 </i>
    <i name="Eion">      0.00000000 </i>
   </dipole>
   <energy>
    <i name="e_fr_energy">   -128.18360947 </i>
    <i name="e_wo_entrp">   -128.10416200 </i>
    <   <time name="dav">   24.72   24.78</time>
   <time name="total">   25.99   26.05</time>
   <di   <time name="total">   25.51   25.57</time>
   <dipole>
    <v name="dipole">      0.00000000       0.00000000      -0.20455306 </v>
    <i name="Tr[quadrupol]">  -3876.57661220 </i>
    <i name="Echarged">      0.00000000 </i>
    <i name="Edipol_quadrupol">      0.00000000 </i>
    <i name="Eion">      0.00000000 </i>
   </dipole>
   <energy>
    <i name="e_fr_energy">   -128.20345328 </i>
    <i name="e_wo_entrp">   -128.12397387 </i>
    <i name="e_0_energy">   -12   <time name="dav">   26.   <time name="dav">   30.29   30.36</time>
   <time name="total">   31.54   31.62</time>
   <dipole>
    <v name="dipole">      0.00000000       0.00000000      -0.19788359 </v>
    <i name="Tr[quadrupol]">  -3875.22662812 </i>
    <i name="Echarged">      0.00000000 </i>
    <i name="Edipol_quadrupol">      0.00000000 </i>
    <i name="Eion">      0.00000000 </i>
   </dipole>
   <energy>
    <i name="e_fr_energy">   -128.18062354 </i>
    <i name="e_wo_entrp">   -128.10119909 </i>
    <i name="e_0_energy">   -128.14091131 </i>
   </energ   <time name="dav">   19.   <time name="dav">   27.72   27.78</time>
   <time name="total">   29.00   29.07</time>
   <dipole>
    <v name="dipole">      0.00000000       0.00000000      -0.20154294 </v>
    <i name="Tr[quadrupol]">  -3875.22058496 </i>
    <i name="Echarged">      0.00000000 </i>
    <i name="Edipol_quadrupol">      0.00000000 </i>
    <i name="Eion">      0.00000000 </i>
   </dipole>
   <energy>
    <i name="e_fr_energy">   -128.18050301 </i>
    <i name="e_wo_entrp">   -128.10091206 </i>
    <i name="e_0_energy">   -128.14070754 </i>
   </energ   <time name="dav">   19.   <time name="dav">   22.11   22.16</time>
   <time name="total">   22.28   22.33</time>
   <dipole>
    <v name="dipole">      0.00000000       0.00000000      -0.20163259 </v>
    <i name="Tr[quadrupol]">  -3875.22156354 </i>
    <i name="Echarged">      0.00000000 </i>
    <i name="Edipol_quadrupol">      0.00000000 </i>
    <i name="Eion">      0.00000000 </i>
   </dipole>
   <energy>
    <i name="alphaZ">   1396.72881014 </i>
    <i name="ewald"> 209038.95755935 </i>
[...]
     <field>total</field>
     <field>integrated</field>
     <set>
      <set comment="spin 1">
       <r>   -11.2922     0.0000     0.0000 </r>
       <r>   -11.2329     0.0000     0.0000 </r>
       <r>   -11.1736     0.0000     0.0000 </r>
       <r>   -11.1144     0.0000     0.0000 </r>
       <r>   -11.0551     0.0000     0.0000 </r>
       <r>   -1  <dos>
   <i name="efermi">     -1.57867362 </i>
   <total>
    <array>
     <dimension dim="1">gridpoints</dimension>
     <dimension dim="2">spin</dimension>
     <field>energy</field>
     <field>total</field>
     <field>integrated</field>
     <set>
      <set comment="spin 1">
       <r>   -11.3535     0.0000     0.0000 </r>
       <r>   -11.2942     0.0000     0.0000 </r>
       <r>   -11.2348     0.0000     0.0000 </r>
       <r>   -11.1755     0.0000     0.0000 </r>
       <r>   -11.1161     0.0000     0.0000 </r>
       <r>   -11.0568     0.0000     0.0000 </r>
       <r>   -10.9974     0.0000     0.0000 </r>
       <r>   -10.9381     0.0000     0.0000 </r>
       <r>   -10.8787     0.0000     0.0000 </r>
       <r>   -10.8194     0.0000     0.0000 </r>
       <r>   -10.7600     0.0000     0.0000 </r>
       <r>   -10.7007     0.0000     0.0000 </r>
       <r>   -10.6413     0.0000     0.0000 </r>
       <r>   -10.5820     0.0008     0.0000 </r>
       <r>   -10.5226     0.0105     0.0007 </r>
       <r>   -10.4633     0.0716     0.0049 </r>
       <r>   -10.4039     0.2661     0.0207 </r>
       <r>   -10.3446     0.6479     0.0592 </r>
       <r>   -10.2852     1.3715     0.1406 </r>
       <r>   -10.2259     2.3979     0.2829 </r>
       <r>   -10.1665     2.6070     0.4376 </r>
       <r>   -10.1072     1.5820     0.5315 </r>
       <r>   -10.0478     0.8594     0.5825 </r>
       <r>    -9.9885     1.4856     0.6707 </r>
       <r>    -9.9291     2.7425     0.8335 </r>
       <r>    -9.8698     3.3383     1.0316 </r>
       <r>    -9.8104     3.3529     1.2306 </r>
       <r>    -9.7511     2.8229     1.3981 </r>
       <r>    -9.6917     1.5275     1.4888 </r>
       <r>    -9.6324     0.4583     1.5160 </r>
       <r>    -9.5730     0.1658     1.5258 </r>
       <r>    -9.5137     0.6905     1.5668 </r>
       <r>    -9.4543     2.5189     1.7163 </r>
       <r>    -9.3950     4.8153     2.0021 </r>
       <r>    -9.3356     4.8118     2.2877 </r>
       <r>    -9.2763     2.6594     2.4455 </r>
       <r>    -9.2169     1.5300     2.5363 </r>
       <r>    -9.1576     2.3324     2.6747 </r>
       <r>    -9.0982     3.1891     2.8640 </r>
       <r>    -9.0388     2.9899     3.0415 </r>
       <r>    -8.9795     2.8875     3.2128 </r>
       <r>    -8.9201     2.8475     3.3819 </r>
       <r>    -8.8608     2.2187     3.5135 </r>
       <r>    -8.8014     2.6006     3.6679 </r>
       <r>    -8.7421     5.0150     3.9655 </r>
       <r>    -8.6827     7.9478     4.4372 </r>
       <r>    -8.6234     9.4735     4.9995 </r>
       <r>    -8.5640     8.3231     5.4935 </r>
       <r>    -8.5047     4.9415     5.7868 </r>
       <r>    -8.4453     1.8922     5.8991 </r>
       <r>    -8.3860     0.9187     5.9536 </r>
       <r>    -8.3266     2.0489     6.0752 </r>
       <r>    -8.2673     4.4842     6.3413 </r>
       <r>    -8.2079     6.3848     6.7203 </r>
       <r>    -8.1486     5.9698     7.0746 </r>
       <r>    -8.0892     3.8253     7.3016 </r>
       <r>    -8.0299     3.0762     7.4842 </r>
       <r>    -7.9705     5.3703     7.8029 </r>
       <r>    -7.9112     7.6589     8.2575 </r>
       <r>    -7.8518     6.6503     8.6522 </r>
       <r>    -7.7925     5.0421     8.9514 </r>
       <r>    -7.7331     5.7031     9.2899 </r>
       <r>    -7.6738     6.4075     9.6702 </r>
       <r>    -7.6144     6.3231    10.0455 </r>
       <r>    -7.5551     6.9011    10.4551 </r>
       <r>    -7.4957     7.4927    10.8998 </r>
       <r>    -7.4364     7.3476    11.3358 </r>
       <r>    -7.3770     6.9877    11.7506 </r>
       <r>    -7.3177     5.9821    12.1056 </r>
       <r>    -7.2583     4.9296    12.3982 </r>
       <r>    -7.1990     5.7012    12.7366 </r>
       <r>    -7.1396     8.5521    13.2441 </r>
       <r>    -7.0803    11.9605    13.9540 </r>
       <r>    -7.0209    13.2730    14.7418 </r>
       <r>    -6.9616    13.3720    15.5354 </r>
       <r>    -6.9022    14.7412    16.4103 </r>
       <r>    -6.8429    15.1190    17.3076 </r>
       <r>    -6.7835    12.8543    18.0705 </r>
       <r>    -6.7242    10.3825    18.6867 </r>
       <r>    -6.6648    10.3557    19.3014 </r>
       <r>    -6.6055    11.5854    19.9890 </r>
       <r>    -6.5461    12.7520    20.7458 </r>
       <r>    -6.4868    17.6060    21.7907 </r>
       <r>    -6.4274    29.1094    23.5184 </r>
       <r>    -6.3681    39.5806    25.8675 </r>
       <r>    -6.3087    39.6605    28.2214 </r>
       <r>    -6.2494    34.0760    30.2438 </r>
       <r>    -6.1900    31.8816    32.1360 </r>
       <r>    -6.1307    33.1200    34.1017 </r>
       <r>    -6.0713    36.8941    36.2914 </r>
       <r>    -6.0120    43.6313    38.8810 </r>
       <r>    -5.9526    50.6705    41.8883 </r>
       <r>    -5.8933    56.4353    45.2378 </r>
       <r>    -5.8339    61.4130    48.8827 </r>
       <r>    -5.7746    69.5076    53.0080 </r>
       <r>    -5.7152    81.7640    57.8607 </r>
       <r>    -5.6559    87.6401    63.0622 </r>
       <r>    -5.5965    82.4648    67.9566 </r>
       <r>    -5.5372    77.0207    72.5278 </r>
       <r>    -5.4778    77.7024    77.1395 </r>
       <r>    -5.4185    79.3386    81.8483 </r>
       <r>    -5.3591    78.5028    86.5075 </r>
       <r>    -5.2998    80.1569    91.2649 </r>
       <r>    -5.2404    84.0704    96.2545 </r>
       <r>    -5.1811    84.7880   101.2867 </r>
       <r>    -5.1217    83.9805   106.2710 </r>
       <r>    -5.0624    84.1047   111.2627 </r>
       <r>    -5.0030    84.1862   116.2592 </r>
       <r>    -4.9437    83.9736   121.2431 </r>
       <r>    -4.8843    82.3714   126.1319 </r>
       <r>    -4.8249    85.8003   131.2242 </r>
       <r>    -4.7656    99.9562   137.1567 </r>
       <r>    -4.7062   114.2988   143.9404 </r>
       <r>    -4.6469   119.7894   151.0500 </r>
       <r>    -4.5875   122.5095   158.3210 </r>
       <r>    -4.5282   130.5226   166.0676 </r>
       <r>    -4.4688   140.7330   174.4202 </r>
       <r>    -4.4095   150.9585   183.3797 </r>
       <r>    -4.3501   162.7145   193.0369 </r>
       <r>    -4.2908   170.7461   203.1708 </r>
       <r>    -4.2314   166.3184   213.0419 </r>
       <r>    -4.1721   148.3344   221.8457 </r>
       <r>    -4.1127   127.8599   229.4343 </r>
       <r>    -4.0534   121.1486   236.6245 </r>
       <r>    -3.9940   134.9131   244.6317 </r>
       <r>    -3.9347   146.1516   253.3059 </r>
       <r>    -3.8753   132.4433   261.1665 </r>
       <r>    -3.8160   112.2891   267.8309 </r>
       <r>    -3.7566   111.8242   274.4678 </r>
       <r>    -3.6973   126.6146   281.9824 </r>
       <r>    -3.6379   143.8429   290.5196 </r>
       <r>    -3.5786   160.2406   300.0300 </r>
       <r>    -3.5192   167.5560   309.9746 </r>
       <r>    -3.4599   159.6756   319.4514 </r>
       <r>    -3.4005   157.8088   328.8175 </r>
       <r>    -3.3412   183.5174   339.7094 </r>
       <r>    -3.2818   213.9471   352.4073 </r>
       <r>    -3.2225   209.2550   364.8267 </r>
       <r>    -3.1631   164.3328   374.5800 </r>
       <r>    -3.1038   107.0151   380.9314 </r>
       <r>    -3.0444    64.4825   384.7585 </r>
       <r>    -2.9851    41.3764   387.2142 </r>
       <r>    -2.9257    29.6826   388.9759 </r>
       <r>    -2.8664    23.1069   390.3473 </r>
       <r>    -2.8070    17.9269   391.4113 </r>
       <r>    -2.7477    14.8850   392.2947 </r>
       <r>    -2.6883    15.4434   393.2113 </r>
       <r>    -2.6290    16.0215   394.1622 </r>
       <r>    -2.5696    13.4222   394.9588 </r>
       <r>    -2.5103     9.6268   395.5301 </r>
       <r>    -2.4509     7.5947   395.9809 </r>
       <r>    -2.3916     8.0556   396.4590 </r>
       <r>    -2.3322    12.3586   397.1925 </r>
       <r>    -2.2729    20.5394   398.4115 </r>
       <r>    -2.2135    24.7581   399.8809 </r>
       <r>    -2.1542    19.4691   401.0364 </r>
       <r>    -2.0948    11.8494   401.7397 </r>
       <r>    -2.0355     7.8280   402.2043 </r>
       <r>    -1.9761     6.0781   402.5650 </r>
       <r>    -1.9168     4.4897   402.8315 </r>
       <r>    -1.8574     3.4161   403.0343 </r>
       <r>    -1.7981     5.8228   403.3798 </r>
       <r>    -1.7387    12.7159   404.1345 </r>
       <r>    -1.6794    18.4222   405.2279 </r>
       <r>    -1.6200    18.3252   406.3155 </r>
       <r>    -1.5607    16.3286   407.2846 </r>
       <r>    -1.5013    14.7701   408.1613 </r>
       <r>    -1.4420    12.7555   408.9183 </r>
       <r>    -1.3826    11.7402   409.6151 </r>
       <r>    -1.3233    12.0662   410.3312 </r>
       <r>    -1.2639    13.4869   411.1317 </r>
       <r>    -1.2046    16.5020   412.1111 </r>
       <r>    -1.1452    17.3974   413.1436 </r>
       <r>    -1.0859    13.4206   413.9402 </r>
       <r>    -1.0265     9.3035   414.4923 </r>
       <r>    -0.9672     8.4377   414.9931 </r>
       <r>    -0.9078     8.3156   415.4867 </r>
       <r>    -0.8485     6.5889   415.8777 </r>
       <r>    -0.7891     4.9778   416.1731 </r>
       <r>    -0.7298     4.9031   416.4641 </r>
       <r>    -0.6704     5.0187   416.7620 </r>
       <r>    -0.6110     5.5013   417.0885 </r>
       <r>    -0.5517     7.8489   417.5544 </r>
       <r>    -0.4923    12.7883   418.3133 </r>
       <r>    -0.4330    20.0997   419.5063 </r>
       <r>    -0.3736    26.1289   421.0570 </r>
       <r>    -0.3143    25.7505   422.5854 </r>
       <r>    -0.2549    19.5295   423.7444 </r>
       <r>    -0.1956    12.9264   424.5116 </r>
       <r>    -0.1362    10.0153   425.1061 </r>
       <r>    -0.0769     9.6765   425.6804 </r>
       <r>    -0.0175     8.7291   426.1984 </r>
       <r>     0.0418     7.9898   426.6726 </r>
       <r>     0.1012     9.1566   427.2161 </r>
       <r>     0.1605    10.5926   427.8448 </r>
       <r>     0.2199    10.6068   428.4743 </r>
       <r>     0.2792     9.8648   429.0598 </r>
       <r>     0.3386     9.7860   429.6406 </r>
       <r>     0.3979    10.4154   430.2587 </r>
       <r>     0.4573    11.0580   430.9150 </r>
       <r>     0.5166    11.1318   431.5757 </r>
       <r>     0.5760    10.3351   432.1891 </r>
       <r>     0.6353     9.9038   432.7769 </r>
       <r>     0.6947     9.7588   433.3561 </r>
       <r>     0.7540     8.9229   433.8857 </r>
       <r>     0.8134     8.5965   434.3959 </r>
       <r>     0.8727    10.9472   435.0456 </r>
       <r>     0.9321    15.5392   435.9679 </r>
       <r>     0.9914    19.7406   437.1395 </r>
       <r>     1.0508    22.1559   438.4545 </r>
       <r>     1.1101    21.2815   439.7175 </r>
       <r>     1.1695    16.0020   440.6673 </r>
       <r>     1.2288     9.6199   441.2382 </r>
       <r>     1.2882     5.9974   441.5942 </r>
       <r>     1.3475     5.0412   441.8934 </r>
       <r>     1.4069     5.1787   442.2007 </r>
       <r>     1.4662     5.2328   442.5113 </r>
       <r>     1.5256     4.7439   442.7929 </r>
       <r>     1.5849     4.8211   443.0790 </r>
       <r>     1.6443     5.8173   443.4243 </r>
       <r>     1.7036     7.1973   443.8514 </r>
       <r>     1.7630     8.8829   444.3786 </r>
       <r>     1.8223     9.3543   444.9338 </r>
       <r>     1.8817     8.1697   445.4187 </r>
       <r>     1.9410     8.4411   445.9197 </r>
       <r>     2.0004    10.8258   446.5622 </r>
       <r>     2.0597    11.0907   447.2204 </r>
       <r>     2.1191     8.4198   447.7202 </r>
       <r>     2.1784     6.8491   448.1267 </r>
       <r>     2.2378     7.0551   448.5454 </r>
       <r>     2.2971     6.6019   448.9372 </r>
       <r>     2.3565     5.4574   449.2611 </r>
       <r>     2.4158     5.0237   449.5593 </r>
       <r>     2.4752     6.4970   449.9449 </r>
       <r>     2.5345     9.8337   450.5285 </r>
       <r>     2.5939    12.5224   451.2717 </r>
       <r>     2.6532    12.8270   452.0330 </r>
       <r>     2.7126    12.4251   452.7705 </r>
       <r>     2.7719    12.8992   453.5360 </r>
       <r>     2.8313    13.6308   454.3450 </r>
       <r>     2.8906    13.2088   455.1290 </r>
       <r>     2.9500    12.1957   455.8528 </r>
       <r>     3.0093    12.9724   456.6227 </r>
       <r>     3.0687    14.6291   457.4910 </r>
       <r>     3.1280    14.7531   458.3666 </r>
       <r>     3.1874    15.2494   459.2716 </r>
       <r>     3.2467    17.0901   460.2859 </r>
       <r>     3.3061    16.5398   461.2676 </r>
       <r>     3.3654    14.1582   462.1079 </r>
       <r>     3.4248    13.5406   462.9115 </r>
       <r>     3.4841    13.7556   463.7279 </r>
       <r>     3.5435    14.9230   464.6136 </r>
       <r>     3.6028    17.7735   465.6685 </r>
       <r>     3.6622    19.7410   466.8401 </r>
       <r>     3.7216    19.9000   468.0212 </r>
       <r>     3.7809    19.4955   469.1783 </r>
       <r>     3.8403    18.7847   470.2932 </r>
       <r>     3.8996    17.1801   471.3128 </r>
       <r>     3.9590    16.0645   472.2663 </r>
       <r>     4.0183    17.9753   473.3331 </r>
       <r>     4.0777    20.5099   474.5504 </r>
       <r>     4.1370    19.9247   475.7329 </r>
       <r>     4.1964    17.7156   476.7844 </r>
       <r>     4.2557    17.7525   477.8380 </r>
       <r>     4.3151    21.0768   479.0889 </r>
       <r>     4.3744    25.2135   480.5853 </r>
       <r>     4.4338    27.7314   482.2312 </r>
       <r>     4.4931    26.0025   483.7745 </r>
       <r>     4.5525    21.0640   485.0247 </r>
       <r>     4.6118    18.5451   486.1253 </r>
       <r>     4.6712    18.7846   487.2402 </r>
       <r>     4.7305    17.9849   488.3076 </r>
       <r>     4.7899    16.7852   489.3038 </r>
       <r>     4.8492    17.5305   490.3443 </r>
       <r>     4.9086    18.6686   491.4523 </r>
       <r>     4.9679    18.6959   492.5619 </r>
       <r>     5.0273    19.1188   493.6966 </r>
       <r>     5.0866    21.1232   494.9503 </r>
       <r>     5.1460    22.3230   496.2752 </r>
       <r>     5.2053    19.8986   497.4562 </r>
       <r>     5.2647    15.3673   498.3682 </r>
       <r>     5.3240    11.3009   499.0389 </r>
       <r>     5.3834     7.8625   499.5056 </r>
       <r>     5.4427     4.8675   499.7945 </r>
       <r>     5.5021     2.4190   499.9380 </r>
       <r>     5.5614     0.8393   499.9879 </r>
       <r>     5.6208     0.1807   499.9986 </r>
       <r>     5.6801     0.0223   499.9999 </r>
       <r>     5.7395     0.0015   500.0000 </r>
       <r>     5.7988     0.0001   500.0000 </r>
       <r>     5.8582     0.0000   500.0000 </r>
       <r>     5.9175     0.0000   500.0000 </r>
       <r>     5.9769     0.0000   500.0000 </r>
       <r>     6.0362     0.0000   500.0000 </r>
       <r>     6.0956     0.0000   500.0000 </r>
       <r>     6.1549     0.0000   500.0000 </r>
       <r>     6.2143     0.0000   500.0000 </r>
       <r>     6.2736     0.0000   500.0000 </r>
       <r>     6.3330     0.0000   500.0000 </r>
       <r>     6.3923     0.0000   500.0000 </r>
       <r>     6.4517     0.0000   500.0000 </r>
      </set>
     </set>
    </array>
   </total>
  </dos>
 </calculation>
 <structure name="finalpos" >
  <crystal>
   <varray name="basis" >
    <v>       7.71239996       0.00000000       0.00000000 </v>
    <v>      -3.85619998       6.67913429       0.00000000 </v>
    <v>       0.00000000       0.00000000      24.29719925 </v>
   </varray>
   <i name="volume">   1251.60109432 </i>
   <varray name="rec_basis" >
    <v>       0.12966133       0.07486000       0.00000000 </v>
    <v>       0.00000000       0.14972000       0.00000000 </v>
    <v>       0.00000000       0.00000000       0.04115701 </v>
   </varray>
  </crystal>
  <varray name="positions" >
   <v>       0.33333055       0.66666952       0.99998117 </v>
   <v>       0.33333155       0.99999968       0.99998127 </v>
   <v>       0.00000034       0.66666851       0.99998127 </v>
   <v>       0.00000106       0.99999894       0.99998137 </v>
   <v>       0.33333374       0.33333358       0.99998160 </v>
   <v>       0.66666645       0.66666631       0.99998160 </v>
   <v>       0.66666550       0.99999855       0.99998166 </v>
   <v>       0.00000144       0.33333452       0.99998166 </v>
   <v>       0.66666864       0.33333139       0.99998187 </v>
   <v>       0.44444232       0.22222301       0.08654002 </v>
   <v>       0.77777700       0.55555767       0.08654002 </v>
   <v>       0.11110840       0.55555772       0.08654003 </v>
   <v>       0.44444228       0.88889164       0.08654003 </v>
   <v>       0.44444159       0.55555839       0.08654015 </v>
   <v>       0.77777882       0.22222117       0.08654017 </v>
   <v>       0.11110945       0.88889061       0.08654046 </v>
   <v>       0.11110991       0.22222219       0.08654066 </v>
   <v>       0.77777783       0.88889014       0.08654066 </v>
   <v>       0.23395511       0.09937698       0.17248675 </v>
   <v>       0.90135510       0.76679636       0.17336836 </v>
   <v>       0.90173895       0.09934149       0.17342004 </v>
   <v>       0.23345542       0.76583715       0.17295009 </v>
   <v>       0.56653990       0.43197665       0.17336887 </v>
   <v>       0.56749943       0.09987416       0.17295023 </v>
   <v>       0.90057492       0.43275900       0.17376952 </v>
   <v>       0.23399096       0.43159396       0.17342049 </v>
   <v>       0.56722656       0.76610816       0.17319033 </v>
   <v>       0.35060239       0.64898766       0.25850421 </v>
   <v>       0.35343362       0.97990235       0.25742753 </v>
   <v>       1.01731506       0.65004657       0.25948178 </v>
   <v>       0.35132368       0.31843520       0.25903299 </v>
   <v>       0.68364422       0.64968854       0.25856391 </v>
   <v>       1.01489748       0.98201096       0.25903322 </v>
   <v>       0.68434948       0.98272935       0.25850481 </v>
   <v>       1.01666622       0.31666499       0.25931045 </v>
   <v>       0.68328846       0.31601404       0.25948228 </v>
   <v>       0.24801365       0.08531583       0.34523358 </v>
  </varray>
  <varray name="selective"  type="logical" >
   <v type="logical" >  F  F  F </v>
   <v type="logical" >  F  F  F </v>
   <v type="logical" >  F  F  F </v>
   <v type="logical" >  F  F  F </v>
   <v type="logical" >  F  F  F </v>
   <v type="logical" >  F  F  F </v>
   <v type="logical" >  F  F  F </v>
   <v type="logical" >  F  F  F </v>
   <v type="logical" >  F  F  F </v>
   <v type="logical" >  F  F  F </v>
   <v type="logical" >  F  F  F </v>
   <v type="logical" >  F  F  F </v>
   <v type="logical" >  F  F  F </v>
   <v type="logical" >  F  F  F </v>
   <v type="logical" >  F  F  F </v>
   <v type="logical" >  F  F  F </v>
   <v type="logical" >  F  F  F </v>
   <v type="logical" >  F  F  F </v>
   <v type="logical" >  T  T  T </v>
   <v type="logical" >  T  T  T </v>
   <v type="logical" >  T  T  T </v>
   <v type="logical" >  T  T  T </v>
   <v type="logical" >  T  T  T </v>
   <v type="logical" >  T  T  T </v>
   <v type="logical" >  T  T  T </v>
   <v type="logical" >  T  T  T </v>
   <v type="logical" >  T  T  T </v>
   <v type="logical" >  T  T  T </v>
   <v type="logical" >  T  T  T </v>
   <v type="logical" >  T  T  T </v>
   <v type="logical" >  T  T  T </v>
   <v type="logical" >  T  T  T </v>
   <v type="logical" >  T  T  T </v>
   <v type="logical" >  T  T  T </v>
   <v type="logical" >  T  T  T </v>
   <v type="logical" >  T  T  T </v>
   <v type="logical" >  T  T  T </v>
  </varray>
  <nose>
   <v>      -3.00000000       0.00000000       0.00010000       0.00010000 </v>
  </nose>
 </structure>
</modeling>
</v>
  </nose>
 </structure>
</modeling>
