 running on   40 total cores
 distrk:  each k-point on   40 cores,    1 groups
 distr:  one band on    1 cores,   40 groups
 using from now: INCAR     
 vasp.5.4.1 05Feb16 (build Nov 22 2018 20:17:51) complex                        
  
 POSCAR found type information on POSCAR  Pd
 POSCAR found :  1 types and      32 ions
 scaLAPACK will be used

 ----------------------------------------------------------------------------- 
|                                                                             |
|           W    W    AA    RRRRR   N    N  II  N    N   GGGG   !!!           |
|           W    W   A  A   R    R  NN   N  II  NN   N  G    G  !!!           |
|           W    W  A    A  R    R  N N  N  II  N N  N  G       !!!           |
|           W WW W  AAAAAA  RRRRR   N  N N  II  N  N N  G  GGG   !            |
|           WW  WW  A    A  R   R   N   NN  II  N   NN  G    G                |
|           W    W  A    A  R    R  N    N  II  N    N   GGGG   !!!           |
|                                                                             |
|      For optimal performance we recommend to set                            |
|        NCORE= 4 - approx SQRT( number of cores)                             |
|      NCORE specifies how many cores store one orbital (NPAR=cpu/NCORE).     |
|      This setting can  greatly improve the performance of VASP for DFT.     |
|      The default, NPAR=number of cores might be grossly inefficient         |
|      on modern multi-core architectures or massively parallel machines.     |
|      Do your own testing !!!!                                               |
|      Unfortunately you need to use the default for GW and RPA calculations. |
|      (for HF NCORE is supported but not extensively tested yet)             |
|                                                                             |
 ----------------------------------------------------------------------------- 

 LDA part: xc-table for Ceperly-Alder, standard interpolation
 POSCAR found type information on POSCAR  Pd
 POSCAR found :  1 types and      32 ions
 POSCAR, INCAR and KPOINTS ok, starting setup
 WARNING: small aliasing (wrap around) errors must be expected
 FFT: planning ...
 WAVECAR not read
 WARNING: random wavefunctions but no delay for mixing, default for NELMDL
 entering main loop
       N       E                     dE             d eps       ncg     rms          rms(c)
DAV:   1     0.266095269462E+04    0.26610E+04   -0.13293E+05  6000   0.133E+03
DAV:   2     0.510923206228E+02   -0.26099E+04   -0.24282E+04  6000   0.394E+02
DAV:   3    -0.155297538497E+03   -0.20639E+03   -0.17967E+03  7160   0.101E+02
DAV:   4    -0.161864908299E+03   -0.65674E+01   -0.64920E+01  6560   0.252E+01
DAV:   5    -0.162043095952E+03   -0.17819E+00   -0.17814E+00  8880   0.279E+00    0.151E+01
RMM:   6    -0.155504475293E+03    0.65386E+01   -0.21569E+01  6020   0.147E+01    0.333E+00
RMM:   7    -0.156546185494E+03   -0.10417E+01   -0.33457E+00  6006   0.304E+00    0.947E+00
RMM:   8    -0.156344845879E+03    0.20134E+00   -0.73160E-01  6029   0.169E+00    0.956E+00
RMM:   9    -0.155274005272E+03    0.10708E+01   -0.43059E-01  6023   0.157E+00    0.430E+00
RMM:  10    -0.155075450748E+03    0.19855E+00   -0.95733E-02  6019   0.882E-01    0.171E+00
RMM:  11    -0.155056008986E+03    0.19442E-01   -0.10804E-01  6018   0.891E-01    0.153E+00
RMM:  12    -0.155227399071E+03   -0.17139E+00   -0.11412E-01  6023   0.679E-01    0.468E+00
RMM:  13    -0.155004826855E+03    0.22257E+00   -0.29909E-02  6019   0.335E-01    0.690E-01
RMM:  14    -0.155032253248E+03   -0.27426E-01   -0.55768E-03  6021   0.160E-01    0.194E+00
RMM:  15    -0.154993536197E+03    0.38717E-01   -0.68114E-03  6024   0.156E-01    0.261E-01
RMM:  16    -0.155025614429E+03   -0.32078E-01   -0.11667E-02  6017   0.192E-01    0.212E+00
RMM:  17    -0.154999391854E+03    0.26223E-01   -0.13344E-03  6033   0.108E-01    0.122E+00
RMM:  18    -0.154985042368E+03    0.14349E-01   -0.21122E-03  6007   0.834E-02    0.322E-01
RMM:  19    -0.154995304108E+03   -0.10262E-01   -0.29808E-03  6002   0.808E-02    0.128E+00
RMM:  20    -0.154988402262E+03    0.69018E-02   -0.51020E-04  5978   0.400E-02    0.811E-01
RMM:  21    -0.154982889760E+03    0.55125E-02   -0.16076E-03  5995   0.605E-02    0.275E-01
RMM:  22    -0.154983147835E+03   -0.25807E-03   -0.21018E-04  5902   0.487E-02    0.832E-02
RMM:  23    -0.154992669268E+03   -0.95214E-02   -0.11342E-03  6005   0.436E-02    0.869E-01
RMM:  24    -0.154990380620E+03    0.22886E-02   -0.16062E-04  4863   0.284E-02    0.670E-01
RMM:  25    -0.154988998162E+03    0.13825E-02   -0.69542E-05  4543   0.134E-02    0.545E-01
RMM:  26    -0.154986769631E+03    0.22285E-02   -0.17972E-04  5881   0.203E-02    0.229E-01
RMM:  27    -0.154986305358E+03    0.46427E-03   -0.56914E-05  4733   0.166E-02    0.869E-02
RMM:  28    -0.154986256827E+03    0.48531E-04   -0.10190E-05  3428   0.895E-03    0.500E-02
RMM:  29    -0.154986248802E+03    0.80252E-05   -0.80429E-06  3391   0.697E-03
   1 F= -.15498625E+03 E0= -.15498269E+03  d E =-.154986E+03
 curvature:   0.00 expect dE= 0.000E+00 dE for cont linesearch  0.000E+00
 trial: gam= 0.00000 g(F)=  0.178E-02 g(S)=  0.000E+00 ort = 0.000E+00 (trialstep = 0.100E+01)
 search vector abs. value=  0.178E-02
 bond charge predicted
       N       E                     dE             d eps       ncg     rms          rms(c)
DAV:   1    -0.154987661154E+03   -0.14043E-02   -0.10660E-01  6920   0.660E-01    0.485E-02
RMM:   2    -0.154988710639E+03   -0.10495E-02   -0.33793E-03  6026   0.118E-01    0.301E-01
RMM:   3    -0.154988167366E+03    0.54327E-03   -0.52920E-04  6973   0.431E-02    0.156E-01
RMM:   4    -0.154987961959E+03    0.20541E-03   -0.12079E-04  5898   0.288E-02    0.471E-02
RMM:   5    -0.154987927553E+03    0.34405E-04   -0.16258E-05  3327   0.115E-02    0.256E-02
RMM:   6    -0.154987959726E+03   -0.32173E-04   -0.28416E-05  3815   0.110E-02    0.733E-02
RMM:   7    -0.154987914929E+03    0.44797E-04   -0.22495E-05  3428   0.114E-02    0.114E-02
RMM:   8    -0.154987928742E+03   -0.13813E-04   -0.15998E-05  3313   0.113E-02    0.391E-02
RMM:   9    -0.154987917625E+03    0.11118E-04   -0.15733E-05  3203   0.105E-02    0.730E-03
RMM:  10    -0.154987917374E+03    0.25069E-06   -0.51746E-06  3144   0.795E-03
   2 F= -.15498792E+03 E0= -.15498437E+03  d E =-.166857E-02
 ZBRENT: can't locate minimum, use default step
 trial-energy change:   -0.001669  1 .order   -0.001719   -0.001776   -0.001662
 step:   4.0000(harm= 15.4951)  dis= 0.00239  next Energy=  -155.000011 (dE=-0.138E-01)
 bond charge predicted
       N       E                     dE             d eps       ncg     rms          rms(c)
DAV:   1    -0.154990068744E+03   -0.21511E-02   -0.95853E-01  6160   0.198E+00    0.194E-01
RMM:   2    -0.155039238379E+03   -0.49170E-01   -0.36137E-02  6028   0.386E-01    0.237E+00
RMM:   3    -0.154994663016E+03    0.44575E-01   -0.81074E-03  6037   0.186E-01    0.314E-01
RMM:   4    -0.154992665196E+03    0.19978E-02   -0.17556E-03  6021   0.115E-01    0.165E-01
RMM:   5    -0.154992281757E+03    0.38344E-03   -0.18892E-04  6006   0.373E-02    0.791E-02
RMM:   6    -0.154992193178E+03    0.88579E-04   -0.10283E-04  5826   0.210E-02    0.605E-02
RMM:   7    -0.154992169447E+03    0.23731E-04   -0.23246E-04  6327   0.281E-02    0.510E-02
RMM:   8    -0.154992161136E+03    0.83105E-05   -0.15007E-04  6489   0.231E-02    0.283E-02
RMM:   9    -0.154992147808E+03    0.13329E-04   -0.11055E-05  3216   0.870E-03    0.951E-03
RMM:  10    -0.154992147057E+03    0.75085E-06   -0.66999E-06  3194   0.630E-03
   3 F= -.15499215E+03 E0= -.15498863E+03  d E =-.589826E-02
 curvature:  -2.88 expect dE=-0.275E-02 dE for cont linesearch -0.257E-02
 ZBRENT: increasing intervall
 opt :  10.0000  next Energy=  -154.997305 (dE=-0.111E-01)
 bond charge predicted
       N       E                     dE             d eps       ncg     rms          rms(c)
DAV:   1    -0.154989634600E+03    0.25132E-02   -0.38406E+00  6000   0.395E+00    0.396E-01
RMM:   2    -0.155198341633E+03   -0.20871E+00   -0.14879E-01  6028   0.799E-01    0.458E+00
RMM:   3    -0.155006586166E+03    0.19176E+00   -0.33833E-02  6040   0.373E-01    0.592E-01
RMM:   4    -0.154999748465E+03    0.68377E-02   -0.66958E-03  6023   0.218E-01    0.284E-01
RMM:   5    -0.154998505114E+03    0.12434E-02   -0.68667E-04  6021   0.697E-02    0.156E-01
RMM:   6    -0.154998110333E+03    0.39478E-03   -0.45271E-04  6022   0.441E-02    0.110E-01
RMM:   7    -0.154997973181E+03    0.13715E-03   -0.15478E-03  6208   0.715E-02    0.646E-02
RMM:   8    -0.154997993716E+03   -0.20535E-04   -0.40392E-04  7535   0.391E-02    0.566E-02
RMM:   9    -0.154997934283E+03    0.59434E-04   -0.72016E-05  5471   0.198E-02    0.226E-02
RMM:  10    -0.154997926977E+03    0.73055E-05   -0.89596E-05  5497   0.173E-02
   4 F= -.15499793E+03 E0= -.15499445E+03  d E =-.116782E-01
 curvature:  -5.77 expect dE=-0.343E-02 dE for cont linesearch -0.118E-02
 ZBRENT: increasing intervall
 opt :  22.0000  next Energy=  -154.997255 (dE=-0.110E-01)
 bond charge predicted
       N       E                     dE             d eps       ncg     rms          rms(c)
DAV:   1    -0.154963060126E+03    0.34874E-01   -0.15370E+01  6000   0.791E+00    0.830E-01
RMM:   2    -0.155810760838E+03   -0.84770E+00   -0.62413E-01  6029   0.170E+00    0.850E+00
RMM:   3    -0.155025100965E+03    0.78566E+00   -0.14405E-01  6043   0.760E-01    0.110E+00
RMM:   4    -0.155003186041E+03    0.21915E-01   -0.27045E-02  6021   0.426E-01    0.537E-01
RMM:   5    -0.154998557763E+03    0.46283E-02   -0.26914E-03  6022   0.136E-01    0.292E-01
RMM:   6    -0.154997291743E+03    0.12660E-02   -0.17207E-03  6039   0.943E-02    0.262E-01
RMM:   7    -0.154996847063E+03    0.44468E-03   -0.12872E-03  7042   0.668E-02    0.197E-01
RMM:   8    -0.154996501280E+03    0.34578E-03   -0.40881E-03  6038   0.118E-01    0.890E-02
RMM:   9    -0.154996404733E+03    0.96547E-04   -0.25654E-04  6533   0.391E-02    0.460E-02
RMM:  10    -0.154996351074E+03    0.53659E-04   -0.12332E-04  5909   0.220E-02    0.345E-02
RMM:  11    -0.154996344771E+03    0.63034E-05   -0.31707E-05  3835   0.126E-02
   5 F= -.15499634E+03 E0= -.15499292E+03  d E =-.100960E-01
 curvature:   3.29 expect dE= 0.868E-02 dE for cont linesearch  0.277E-02
 ZBRENT: bracketing found
 ZBRENT: interpolating
 opt :  13.9597  next Energy=  -154.999120 (dE=-0.129E-01)
 bond charge predicted
       N       E                     dE             d eps       ncg     rms          rms(c)
DAV:   1    -0.154984709794E+03    0.11641E-01   -0.68873E+00  6000   0.528E+00    0.505E-01
RMM:   2    -0.155322279766E+03   -0.33757E+00   -0.24842E-01  6035   0.982E-01    0.566E+00
RMM:   3    -0.155010330392E+03    0.31195E+00   -0.56749E-02  6042   0.492E-01    0.634E-01
RMM:   4    -0.155002892028E+03    0.74384E-02   -0.94813E-03  6023   0.259E-01    0.402E-01
RMM:   5    -0.155000729887E+03    0.21621E-02   -0.14942E-03  6020   0.104E-01    0.224E-01
RMM:   6    -0.155000065886E+03    0.66400E-03   -0.65860E-04  6035   0.536E-02    0.161E-01
RMM:   7    -0.154999812439E+03    0.25345E-03   -0.50918E-04  6506   0.419E-02    0.122E-01
RMM:   8    -0.154999595220E+03    0.21722E-03   -0.19982E-03  6051   0.800E-02    0.364E-02
RMM:   9    -0.154999590399E+03    0.48211E-05   -0.16038E-04  6658   0.282E-02    0.431E-02
RMM:  10    -0.154999555553E+03    0.34846E-04   -0.49121E-05  4439   0.137E-02    0.129E-02
RMM:  11    -0.154999551739E+03    0.38139E-05   -0.18694E-05  3342   0.943E-03
   6 F= -.15499955E+03 E0= -.15499609E+03  d E =-.133029E-01
 curvature:  -1.42 expect dE=-0.999E-03 dE for cont linesearch -0.422E-04
 ZBRENT: interpolating
 opt :  16.0210  next Energy=  -154.999827 (dE=-0.136E-01)
 bond charge predicted
       N       E                     dE             d eps       ncg     rms          rms(c)
DAV:   1    -0.154998677166E+03    0.87839E-03   -0.45160E-01  6000   0.136E+00    0.130E-01
RMM:   2    -0.155020381827E+03   -0.21705E-01   -0.16607E-02  6027   0.262E-01    0.160E+00
RMM:   3    -0.155000848205E+03    0.19534E-01   -0.36642E-03  6037   0.126E-01    0.211E-01
RMM:   4    -0.154999890849E+03    0.95736E-03   -0.79666E-04  6020   0.783E-02    0.104E-01
RMM:   5    -0.154999730957E+03    0.15989E-03   -0.88447E-05  5837   0.254E-02    0.573E-02
RMM:   6    -0.154999683940E+03    0.47017E-04   -0.51718E-05  4756   0.146E-02    0.385E-02
RMM:   7    -0.154999668145E+03    0.15796E-04   -0.19810E-04  5964   0.253E-02    0.149E-02
RMM:   8    -0.154999670809E+03   -0.26641E-05   -0.19094E-05  3333   0.110E-02
   7 F= -.15499967E+03 E0= -.15499623E+03  d E =-.134220E-01
 curvature:  -9.21 expect dE=-0.771E-02 dE for cont linesearch -0.151E-07
 trial: gam= 0.47224 g(F)=  0.837E-03 g(S)=  0.000E+00 ort =-0.171E-05 (trialstep = 0.400E+01)
 search vector abs. value=  0.123E-02
 bond charge predicted
       N       E                     dE             d eps       ncg     rms          rms(c)
DAV:   1    -0.155000376899E+03   -0.70875E-03   -0.11565E+00  6000   0.218E+00    0.175E-01
RMM:   2    -0.155039066874E+03   -0.38690E-01   -0.42862E-02  6044   0.440E-01    0.208E+00
RMM:   3    -0.155005155677E+03    0.33911E-01   -0.67506E-03  6132   0.169E-01    0.241E-01
RMM:   4    -0.155003542606E+03    0.16131E-02   -0.13700E-03  6022   0.988E-02    0.142E-01
RMM:   5    -0.155003243448E+03    0.29916E-03   -0.17351E-04  5980   0.364E-02    0.817E-02
RMM:   6    -0.155003117444E+03    0.12600E-03   -0.11415E-04  5768   0.211E-02    0.528E-02
RMM:   7    -0.155003061169E+03    0.56275E-04   -0.48264E-04  6261   0.401E-02    0.265E-02
RMM:   8    -0.155003066751E+03   -0.55828E-05   -0.98826E-05  5709   0.197E-02
   8 F= -.15500307E+03 E0= -.15499955E+03  d E =-.339594E-02
 ZBRENT: can't locate minimum, use default step
 trial-energy change:   -0.003396  1 .order   -0.003271   -0.003349   -0.003194
 step:  16.0168(harm= 86.7410)  dis= 0.00000  next Energy=  -155.035942 (dE=-0.363E-01)
 bond charge predicted
       N       E                     dE             d eps       ncg     rms          rms(c)
DAV:   1    -0.154986222317E+03    0.16839E-01   -0.10416E+01  6000   0.656E+00    0.533E-01
RMM:   2    -0.155308061997E+03   -0.32184E+00   -0.39463E-01  6041   0.136E+00    0.546E+00
RMM:   3    -0.155025143374E+03    0.28292E+00   -0.61775E-02  6252   0.489E-01    0.720E-01
RMM:   4    -0.155014677957E+03    0.10465E-01   -0.11288E-02  6021   0.270E-01    0.409E-01
RMM:   5    -0.155012221912E+03    0.24560E-02   -0.14430E-03  6022   0.104E-01    0.243E-01
RMM:   6    -0.155011161701E+03    0.10602E-02   -0.10222E-03  6140   0.658E-02    0.168E-01
RMM:   7    -0.155010756752E+03    0.40495E-03   -0.14815E-03  7049   0.727E-02    0.120E-01
RMM:   8    -0.155010596345E+03    0.16041E-03   -0.23910E-03  6617   0.906E-02    0.531E-02
RMM:   9    -0.155010574671E+03    0.21674E-04   -0.15188E-04  6239   0.294E-02    0.470E-02
RMM:  10    -0.155010520539E+03    0.54132E-04   -0.12190E-04  5682   0.214E-02    0.112E-02
RMM:  11    -0.155010521217E+03   -0.67785E-06   -0.31949E-05  3865   0.116E-02
   9 F= -.15501052E+03 E0= -.15500686E+03  d E =-.108504E-01
 curvature: -17.20 expect dE=-0.110E-01 dE for cont linesearch -0.194E-02
 ZBRENT: increasing intervall
 opt :  40.0419  next Energy=  -155.009263 (dE=-0.959E-02)
 bond charge predicted
       N       E                     dE             d eps       ncg     rms          rms(c)
DAV:   1    -0.154917782808E+03    0.92738E-01   -0.41727E+01  6000   0.131E+01    0.111E+00
RMM:   2    -0.156132118156E+03   -0.12143E+01   -0.16614E+00  6038   0.294E+00    0.977E+00
RMM:   3    -0.155072078671E+03    0.10600E+01   -0.27258E-01  6406   0.101E+00    0.146E+00
RMM:   4    -0.155034077512E+03    0.38001E-01   -0.45679E-02  6022   0.539E-01    0.786E-01
RMM:   5    -0.155025265063E+03    0.88124E-02   -0.52399E-03  6022   0.199E-01    0.525E-01
RMM:   6    -0.155021740632E+03    0.35244E-02   -0.32783E-03  6257   0.128E-01    0.412E-01
RMM:   7    -0.155019018652E+03    0.27220E-02   -0.47652E-03  6865   0.133E-01    0.243E-01
RMM:   8    -0.155017943914E+03    0.10747E-02   -0.14129E-02  6311   0.218E-01    0.104E-01
RMM:   9    -0.155017965844E+03   -0.21930E-04   -0.12754E-03  7527   0.798E-02    0.107E-01
RMM:  10    -0.155017721633E+03    0.24421E-03   -0.35933E-04  5991   0.391E-02    0.568E-02
RMM:  11    -0.155017695921E+03    0.25713E-04   -0.52050E-04  7337   0.424E-02    0.230E-02
RMM:  12    -0.155017691085E+03    0.48358E-05   -0.85272E-06  3260   0.905E-03
  10 F= -.15501769E+03 E0= -.15501419E+03  d E =-.180203E-01
 curvature:  11.16 expect dE= 0.551E-02 dE for cont linesearch  0.470E-06
 trial: gam= 0.16045 g(F)=  0.494E-03 g(S)=  0.000E+00 ort =-0.720E-05 (trialstep = 0.112E+02)
 search vector abs. value=  0.524E-03
 bond charge predicted
       N       E                     dE             d eps       ncg     rms          rms(c)
DAV:   1    -0.155012524822E+03    0.51711E-02   -0.38598E+00  6000   0.397E+00    0.309E-01
RMM:   2    -0.155072785769E+03   -0.60261E-01   -0.10675E-01  6018   0.711E-01    0.240E+00
RMM:   3    -0.155025840179E+03    0.46946E-01   -0.21727E-02  6649   0.298E-01    0.573E-01
RMM:   4    -0.155022449366E+03    0.33908E-02   -0.32304E-03  6025   0.151E-01    0.257E-01
RMM:   5    -0.155021575296E+03    0.87407E-03   -0.52399E-04  6016   0.599E-02    0.164E-01
RMM:   6    -0.155021208627E+03    0.36667E-03   -0.82867E-04  6109   0.571E-02    0.138E-01
RMM:   7    -0.155021045183E+03    0.16344E-03   -0.63651E-04  6540   0.460E-02    0.105E-01
RMM:   8    -0.155020981865E+03    0.63318E-04   -0.52764E-04  7287   0.412E-02    0.421E-02
RMM:   9    -0.155020960031E+03    0.21834E-04   -0.18509E-05  3647   0.129E-02    0.274E-02
RMM:  10    -0.155020939038E+03    0.20993E-04   -0.45223E-05  4320   0.135E-02    0.991E-03
RMM:  11    -0.155020937403E+03    0.16349E-05   -0.19457E-05  3173   0.913E-03
  11 F= -.15502094E+03 E0= -.15501754E+03  d E =-.324632E-02
 trial-energy change:   -0.003246  1 .order   -0.002222   -0.005528    0.001083
 step:  10.2175(harm=  9.3753)  dis= 0.00247  next Energy=  -155.020985 (dE=-0.329E-02)
 reached required accuracy - stopping structural energy minimisation
 writing wavefunctions
