 running on   18 total cores
 distrk:  each k-point on   18 cores,    1 groups
 distr:  one band on    1 cores,   18 groups
 using from now: INCAR     
 vasp.5.4.1 24Jun15 (build Oct 26 2018 17:15:27) complex                        
  
 POSCAR found type information on POSCAR  Mn F 
 POSCAR found :  2 types and       6 ions
 scaLAPACK will be used

 ----------------------------------------------------------------------------- 
|                                                                             |
|           W    W    AA    RRRRR   N    N  II  N    N   GGGG   !!!           |
|           W    W   A  A   R    R  NN   N  II  NN   N  G    G  !!!           |
|           W    W  A    A  R    R  N N  N  II  N N  N  G       !!!           |
|           W WW W  AAAAAA  RRRRR   N  N N  II  N  N N  G  GGG   !            |
|           WW  WW  A    A  R   R   N   NN  II  N   NN  G    G                |
|           W    W  A    A  R    R  N    N  II  N    N   GGGG   !!!           |
|                                                                             |
|      For optimal performance we recommend to set                            |
|        NCORE= 4 - approx SQRT( number of cores)                             |
|      NCORE specifies how many cores store one orbital (NPAR=cpu/NCORE).     |
|      This setting can  greatly improve the performance of VASP for DFT.     |
|      The default, NPAR=number of cores might be grossly inefficient         |
|      on modern multi-core architectures or massively parallel machines.     |
|      Do your own testing !!!!                                               |
|      Unfortunately you need to use the default for GW and RPA calculations. |
|      (for HF NCORE is supported but not extensively tested yet)             |
|                                                                             |
 ----------------------------------------------------------------------------- 

 LDA part: xc-table for Ceperly-Alder, standard interpolation
 POSCAR, INCAR and KPOINTS ok, starting setup
 WARNING: small aliasing (wrap around) errors must be expected
 FFT: planning ...
 WAVECAR not read
 entering main loop
       N       E                     dE             d eps       ncg     rms          rms(c)
DAV:   1     0.317504782262E+03    0.31750E+03   -0.21196E+04 79290   0.123E+03
DAV:   2    -0.145535750158E+02   -0.33206E+03   -0.30666E+03 89370   0.294E+02
DAV:   3    -0.391273673179E+02   -0.24574E+02   -0.24168E+02 99648   0.938E+01
DAV:   4    -0.395636665835E+02   -0.43630E+00   -0.43618E+00 95400   0.123E+01
DAV:   5    -0.395768670659E+02   -0.13200E-01   -0.13200E-01111618   0.229E+00    0.263E+01
DAV:   6    -0.392770801049E+02    0.29979E+00   -0.39292E+01 82368   0.510E+01    0.643E+00
DAV:   7    -0.391532668459E+02    0.12381E+00   -0.23707E+00105444   0.209E+01    0.264E+00
DAV:   8    -0.391871774773E+02   -0.33911E-01   -0.20260E-01109314   0.327E+00    0.142E+00
DAV:   9    -0.391708989345E+02    0.16279E-01   -0.21621E-02126432   0.158E+00    0.794E-01
DAV:  10    -0.391671687639E+02    0.37302E-02   -0.92756E-03116910   0.856E-01    0.230E-01
DAV:  11    -0.391674883832E+02   -0.31962E-03   -0.17740E-03113130   0.459E-01    0.822E-02
DAV:  12    -0.391675489781E+02   -0.60595E-04   -0.96387E-05117432   0.747E-02    0.377E-02
DAV:  13    -0.391676302799E+02   -0.81302E-04   -0.90625E-05 86364   0.569E-02    0.204E-02
DAV:  14    -0.391676391052E+02   -0.88253E-05   -0.93786E-06 76608   0.323E-02
   1 F= -.39167639E+02 E0= -.39167639E+02  d E =-.391676E+02  mag=     0.0000
 curvature:   0.00 expect dE= 0.000E+00 dE for cont linesearch  0.000E+00
 trial: gam= 0.00000 g(F)=  0.183E-03 g(S)=  0.164E-02 ort = 0.000E+00 (trialstep = 0.100E+01)
 search vector abs. value=  0.182E-02
 bond charge predicted
       N       E                     dE             d eps       ncg     rms          rms(c)
DAV:   1    -0.391722701220E+02   -0.46398E-02   -0.70383E-02 79452   0.205E+00    0.463E-01
DAV:   2    -0.391692844800E+02    0.29856E-02   -0.92346E-03111636   0.699E-01    0.122E-01
DAV:   3    -0.391692353142E+02    0.49166E-04   -0.72877E-04 86742   0.389E-01    0.450E-02
DAV:   4    -0.391692070275E+02    0.28287E-04   -0.48716E-05102816   0.522E-02    0.236E-02
DAV:   5    -0.391692030418E+02    0.39858E-05   -0.29621E-06 47160   0.123E-02
   2 F= -.39169203E+02 E0= -.39169203E+02  d E =-.156394E-02  mag=     0.0000
 trial-energy change:   -0.001564  1 .order   -0.001565   -0.001823   -0.001307
 step:   3.5310(harm=  3.5310)  dis= 0.00166  next Energy=   -39.170858 (dE=-0.322E-02)
 bond charge predicted
       N       E                     dE             d eps       ncg     rms          rms(c)
DAV:   1    -0.391912076202E+02   -0.22001E-01   -0.45428E-01 79272   0.520E+00    0.117E+00
DAV:   2    -0.391720662500E+02    0.19141E-01   -0.59148E-02112716   0.177E+00    0.311E-01
DAV:   3    -0.391717481373E+02    0.31811E-03   -0.47092E-03 86616   0.981E-01    0.114E-01
DAV:   4    -0.391715624119E+02    0.18573E-03   -0.31142E-04103212   0.132E-01    0.595E-02
DAV:   5    -0.391715391174E+02    0.23294E-04   -0.21185E-05 95958   0.309E-02    0.232E-02
DAV:   6    -0.391715263993E+02    0.12718E-04   -0.15222E-05 86706   0.346E-02    0.566E-03
DAV:   7    -0.391715262073E+02    0.19209E-06   -0.45053E-07 41490   0.727E-03
   3 F= -.39171526E+02 E0= -.39171526E+02  d E =-.388710E-02  mag=     0.0000
 curvature:  -1.77 expect dE=-0.405E-03 dE for cont linesearch -0.177E-03
 ZBRENT: extrapolating
 opt :   4.7617  next Energy=   -39.171789 (dE=-0.415E-02)
 bond charge predicted
       N       E                     dE             d eps       ncg     rms          rms(c)
DAV:   1    -0.391764885726E+02   -0.49622E-02   -0.10805E-01 79254   0.254E+00    0.572E-01
DAV:   2    -0.391719290192E+02    0.45596E-02   -0.14029E-02112680   0.863E-01    0.151E-01
DAV:   3    -0.391718553268E+02    0.73692E-04   -0.11148E-03 86760   0.478E-01    0.554E-02
DAV:   4    -0.391718120921E+02    0.43235E-04   -0.73542E-05103032   0.639E-02    0.289E-02
DAV:   5    -0.391718062898E+02    0.58024E-05   -0.45240E-06 63162   0.150E-02
   4 F= -.39171806E+02 E0= -.39171806E+02  d E =-.416718E-02  mag=    -0.0000
 curvature:  -2.62 expect dE=-0.650E-03 dE for cont linesearch -0.134E-04
 ZBRENT: bracketing found
 ZBRENT: interpolating
 opt :   4.5352  next Energy=   -39.171817 (dE=-0.418E-02)
 bond charge predicted
       N       E                     dE             d eps       ncg     rms          rms(c)
DAV:   1    -0.391719622697E+02   -0.15018E-03   -0.36953E-03 79344   0.463E-01    0.107E-01
DAV:   2    -0.391717998118E+02    0.16246E-03   -0.49865E-04113580   0.163E-01    0.279E-02
DAV:   3    -0.391717971790E+02    0.26328E-05   -0.38133E-05 85446   0.890E-02
   5 F= -.39171797E+02 E0= -.39171797E+02  d E =-.415807E-02  mag=     0.0000
 curvature:  -2.14 expect dE=-0.435E-03 dE for cont linesearch -0.793E-05
 ZBRENT: interpolating
 opt :   4.6394  next Energy=   -39.171801 (dE=-0.416E-02)
 bond charge predicted
       N       E                     dE             d eps       ncg     rms          rms(c)
DAV:   1    -0.391718308534E+02   -0.31042E-04   -0.78831E-04 79416   0.219E-01    0.461E-02
DAV:   2    -0.391718017094E+02    0.29144E-04   -0.95696E-05104058   0.700E-02    0.129E-02
DAV:   3    -0.391718014160E+02    0.29340E-06   -0.64489E-06 40140   0.391E-02
   6 F= -.39171801E+02 E0= -.39171801E+02  d E =-.416231E-02  mag=    -0.0000
 curvature:  -1.16 expect dE=-0.241E-03 dE for cont linesearch -0.127E-05
 ZBRENT: interpolating
 opt :   4.7245  next Energy=   -39.171804 (dE=-0.416E-02)
 bond charge predicted
       N       E                     dE             d eps       ncg     rms          rms(c)
DAV:   1    -0.391718268838E+02   -0.25174E-04   -0.51393E-04 79236   0.175E-01    0.403E-02
DAV:   2    -0.391718044212E+02    0.22463E-04   -0.67834E-05100152   0.605E-02    0.105E-02
DAV:   3    -0.391718038378E+02    0.58344E-06   -0.45728E-06 39870   0.333E-02
   7 F= -.39171804E+02 E0= -.39171804E+02  d E =-.416473E-02  mag=    -0.0000
 curvature:  -2.28 expect dE=-0.499E-03 dE for cont linesearch -0.790E-09
 trial: gam= 0.12039 g(F)=  0.194E-03 g(S)=  0.242E-04 ort =-0.794E-06 (trialstep = 0.174E+01)
 search vector abs. value=  0.245E-03
 bond charge predicted
       N       E                     dE             d eps       ncg     rms          rms(c)
DAV:   1    -0.391720491308E+02   -0.24471E-03   -0.51759E-02 79200   0.132E+00    0.294E-02
DAV:   2    -0.391721652600E+02   -0.11613E-03   -0.12259E-03 98748   0.223E-01    0.138E-02
DAV:   3    -0.391721626288E+02    0.26311E-05   -0.81580E-06 87192   0.236E-02
   8 F= -.39172163E+02 E0= -.39172163E+02  d E =-.358791E-03  mag=     0.0000
 ZBRENT: can't locate minimum, use default step
 trial-energy change:   -0.000359  1 .order   -0.000359   -0.000381   -0.000337
 step:   6.9796(harm= 14.7996)  dis= 0.00378  next Energy=   -39.173422 (dE=-0.162E-02)
 bond charge predicted
       N       E                     dE             d eps       ncg     rms          rms(c)
DAV:   1    -0.391719531175E+02    0.21214E-03   -0.46376E-01 79200   0.395E+00    0.871E-02
DAV:   2    -0.391729787915E+02   -0.10257E-02   -0.10835E-02 98946   0.662E-01    0.407E-02
DAV:   3    -0.391729551266E+02    0.23665E-04   -0.76991E-05 98874   0.710E-02    0.260E-02
DAV:   4    -0.391729351124E+02    0.20014E-04   -0.41251E-05 97416   0.518E-02    0.901E-03
DAV:   5    -0.391729375411E+02   -0.24287E-05   -0.12908E-05 65916   0.199E-02
   9 F= -.39172938E+02 E0= -.39172938E+02  d E =-.113370E-02  mag=     0.0000
 curvature:  -5.32 expect dE=-0.279E-03 dE for cont linesearch -0.241E-03
 ZBRENT: increasing intervall
 opt :  17.4490  next Energy=   -39.173126 (dE=-0.132E-02)
 bond charge predicted
       N       E                     dE             d eps       ncg     rms          rms(c)
DAV:   1    -0.391691494381E+02    0.37857E-02   -0.18635E+00 79236   0.792E+00    0.177E-01
DAV:   2    -0.391733577003E+02   -0.42083E-02   -0.44360E-02 98370   0.133E+00    0.823E-02
DAV:   3    -0.391732668652E+02    0.90835E-04   -0.31479E-04 99810   0.146E-01    0.525E-02
DAV:   4    -0.391731853309E+02    0.81534E-04   -0.15610E-04 96822   0.100E-01    0.197E-02
DAV:   5    -0.391731958855E+02   -0.10555E-04   -0.52941E-05 91278   0.417E-02    0.759E-03
DAV:   6    -0.391731958095E+02    0.75951E-07   -0.80048E-07 44568   0.709E-03
  10 F= -.39173196E+02 E0= -.39173196E+02  d E =-.139197E-02  mag=     0.0000
 curvature:  -4.16 expect dE=-0.982E-04 dE for cont linesearch -0.641E-04
 ZBRENT: bracketing found
 ZBRENT: interpolating
 opt :  13.5932  next Energy=   -39.173314 (dE=-0.151E-02)
 bond charge predicted
       N       E                     dE             d eps       ncg     rms          rms(c)
DAV:   1    -0.391727489954E+02    0.44689E-03   -0.25235E-01 79200   0.291E+00    0.641E-02
DAV:   2    -0.391733181842E+02   -0.56919E-03   -0.59762E-03 97110   0.494E-01    0.303E-02
DAV:   3    -0.391733060495E+02    0.12135E-04   -0.42510E-05100782   0.513E-02    0.193E-02
DAV:   4    -0.391732947158E+02    0.11334E-04   -0.20392E-05 81954   0.376E-02    0.735E-03
DAV:   5    -0.391732963963E+02   -0.16805E-05   -0.73536E-06 43740   0.183E-02
  11 F= -.39173296E+02 E0= -.39173296E+02  d E =-.149256E-02  mag=     0.0000
 curvature:  -7.68 expect dE=-0.457E-04 dE for cont linesearch -0.139E-06
 trial: gam= 0.02106 g(F)=  0.103E-07 g(S)=  0.594E-05 ort =-0.211E-05 (trialstep = 0.411E+01)
 search vector abs. value=  0.597E-05
 reached required accuracy - stopping structural energy minimisation
