 running on   40 total cores
 distrk:  each k-point on   40 cores,    1 groups
 distr:  one band on    1 cores,   40 groups
 using from now: INCAR     
 vasp.5.4.1 05Feb16 (build Sep 02 2018 21:45:25) complex                        
  
 POSCAR found type information on POSCAR  H  N 
 POSCAR found :  2 types and       4 ions
 scaLAPACK will be used

 ----------------------------------------------------------------------------- 
|                                                                             |
|           W    W    AA    RRRRR   N    N  II  N    N   GGGG   !!!           |
|           W    W   A  A   R    R  NN   N  II  NN   N  G    G  !!!           |
|           W    W  A    A  R    R  N N  N  II  N N  N  G       !!!           |
|           W WW W  AAAAAA  RRRRR   N  N N  II  N  N N  G  GGG   !            |
|           WW  WW  A    A  R   R   N   NN  II  N   NN  G    G                |
|           W    W  A    A  R    R  N    N  II  N    N   GGGG   !!!           |
|                                                                             |
|      For optimal performance we recommend to set                            |
|        NCORE= 4 - approx SQRT( number of cores)                             |
|      NCORE specifies how many cores store one orbital (NPAR=cpu/NCORE).     |
|      This setting can  greatly improve the performance of VASP for DFT.     |
|      The default, NPAR=number of cores might be grossly inefficient         |
|      on modern multi-core architectures or massively parallel machines.     |
|      Do your own testing !!!!                                               |
|      Unfortunately you need to use the default for GW and RPA calculations. |
|      (for HF NCORE is supported but not extensively tested yet)             |
|                                                                             |
 ----------------------------------------------------------------------------- 

 LDA part: xc-table for Ceperly-Alder, standard interpolation
 POSCAR, INCAR and KPOINTS ok, starting setup
 WARNING: small aliasing (wrap around) errors must be expected
 FFT: planning ...
 WAVECAR not read
 WARNING: random wavefunctions but no delay for mixing, default for NELMDL
 entering main loop
       N       E                     dE             d eps       ncg     rms          rms(c)
DAV:   1     0.420780424775E+02    0.42078E+02   -0.14336E+03   240   0.720E+01
DAV:   2    -0.134726005221E+02   -0.55551E+02   -0.48100E+02   280   0.229E+01
DAV:   3    -0.161470285074E+02   -0.26744E+01   -0.26744E+01   160   0.715E+00
DAV:   4    -0.161749267766E+02   -0.27898E-01   -0.27898E-01   200   0.938E-01
DAV:   5    -0.161750878006E+02   -0.16102E-03   -0.16102E-03   200   0.631E-02    0.152E+01
DAV:   6    -0.822789480952E+01    0.79472E+01   -0.41200E+01   240   0.930E+00    0.601E+00
DAV:   7    -0.137864098609E+02   -0.55585E+01   -0.38370E+00   160   0.251E+00    0.351E+00
DAV:   8    -0.157144747031E+02   -0.19281E+01   -0.58187E-01   320   0.110E+00    0.198E+00
DAV:   9    -0.177530652772E+02   -0.20386E+01   -0.50733E-01   160   0.100E+00    0.679E-01
DAV:  10    -0.181169583833E+02   -0.36389E+00   -0.39059E-02   200   0.292E-01    0.521E-01
DAV:  11    -0.185626964976E+02   -0.44574E+00   -0.69013E-03   320   0.165E-01    0.360E-01
DAV:  12    -0.191833031112E+02   -0.62061E+00   -0.32657E-02   200   0.310E-01    0.181E-01
DAV:  13    -0.193417858546E+02   -0.15848E+00   -0.11492E-02   240   0.191E-01    0.115E-01
DAV:  14    -0.194768918452E+02   -0.13511E+00   -0.84218E-03   200   0.152E-01    0.664E-02
DAV:  15    -0.195638167295E+02   -0.86925E-01   -0.29622E-03   280   0.936E-02    0.318E-02
DAV:  16    -0.195884035243E+02   -0.24587E-01   -0.82460E-04   160   0.532E-02    0.155E-02
DAV:  17    -0.195994732897E+02   -0.11070E-01   -0.58274E-04   240   0.396E-02    0.810E-03
DAV:  18    -0.196012543702E+02   -0.17811E-02   -0.73995E-05   240   0.201E-02    0.453E-03
DAV:  19    -0.196021317572E+02   -0.87739E-03   -0.71251E-05   160   0.172E-02    0.293E-03
DAV:  20    -0.196024160808E+02   -0.28432E-03   -0.39490E-05   160   0.141E-02    0.235E-03
DAV:  21    -0.196029336188E+02   -0.51754E-03   -0.14735E-05   160   0.863E-03    0.169E-03
DAV:  22    -0.196034900216E+02   -0.55640E-03   -0.78992E-06   160   0.621E-03    0.111E-03
DAV:  23    -0.196036177925E+02   -0.12777E-03   -0.38091E-06   200   0.459E-03    0.692E-04
DAV:  24    -0.196036993556E+02   -0.81563E-04   -0.16923E-06   160   0.295E-03    0.383E-04
DAV:  25    -0.196037538919E+02   -0.54536E-04   -0.88757E-07   200   0.192E-03    0.300E-04
DAV:  26    -0.196037941977E+02   -0.40306E-04   -0.30282E-07   280   0.131E-03    0.193E-04
DAV:  27    -0.196038073337E+02   -0.13136E-04   -0.22798E-07   200   0.114E-03    0.109E-04
DAV:  28    -0.196037938771E+02    0.13457E-04   -0.17848E-07   200   0.943E-04    0.665E-05
DAV:  29    -0.196037883833E+02    0.54938E-05   -0.38776E-08   200   0.439E-04
   1 F= -.19603788E+02 E0= -.19603788E+02  d E =-.196038E+02  mag=    -0.0000
 curvature:   0.00 expect dE= 0.000E+00 dE for cont linesearch  0.000E+00
 trial: gam= 0.00000 g(F)=  0.500E-03 g(S)=  0.000E+00 ort = 0.000E+00 (trialstep = 0.100E+01)
 search vector abs. value=  0.500E-03
 bond charge predicted
       N       E                     dE             d eps       ncg     rms          rms(c)
DAV:   1    -0.196042700133E+02   -0.47614E-03   -0.10863E-03   200   0.627E-02    0.161E-02
DAV:   2    -0.196042643812E+02    0.56321E-05   -0.37310E-05   240   0.860E-03
   2 F= -.19604264E+02 E0= -.19604264E+02  d E =-.475998E-03  mag=    -0.0000
 ZBRENT: can't locate minimum, use default step
 trial-energy change:   -0.000476  1 .order   -0.000478   -0.000500   -0.000455
 step:   4.0000(harm= 10.9032)  dis= 0.00135  next Energy=   -19.606517 (dE=-0.273E-02)
 bond charge predicted
       N       E                     dE             d eps       ncg     rms          rms(c)
DAV:   1    -0.196054676585E+02   -0.11976E-02   -0.96815E-03   200   0.188E-01    0.503E-02
DAV:   2    -0.196054095583E+02    0.58100E-04   -0.33946E-04   160   0.258E-02    0.177E-02
DAV:   3    -0.196054079593E+02    0.15991E-05   -0.21219E-05   320   0.795E-03
   3 F= -.19605408E+02 E0= -.19605408E+02  d E =-.161958E-02  mag=    -0.0000
 curvature:  -2.80 expect dE=-0.533E-03 dE for cont linesearch -0.525E-03
 ZBRENT: increasing intervall
 opt :  10.0000  next Energy=   -19.606356 (dE=-0.257E-02)
 bond charge predicted
       N       E                     dE             d eps       ncg     rms          rms(c)
DAV:   1    -0.196066121017E+02   -0.12025E-02   -0.39207E-02   160   0.377E-01    0.976E-02
DAV:   2    -0.196063852740E+02    0.22683E-03   -0.12370E-03   160   0.524E-02    0.359E-02
DAV:   3    -0.196063729340E+02    0.12340E-04   -0.14000E-04   160   0.186E-02    0.166E-02
DAV:   4    -0.196063714644E+02    0.14696E-05   -0.25828E-05   160   0.775E-03
   4 F= -.19606371E+02 E0= -.19606371E+02  d E =-.258308E-02  mag=    -0.0000
 curvature:  -5.06 expect dE=-0.955E-04 dE for cont linesearch -0.169E-05
 trial: gam= 0.01187 g(F)=  0.189E-04 g(S)=  0.000E+00 ort = 0.129E-04 (trialstep = 0.280E+01)
 search vector abs. value=  0.193E-04
 bond charge predicted
       N       E                     dE             d eps       ncg     rms          rms(c)
DAV:   1    -0.196064219006E+02   -0.48967E-04   -0.62808E-04   160   0.504E-02    0.424E-03
DAV:   2    -0.196064222121E+02   -0.31145E-06   -0.65217E-06   240   0.497E-03
   5 F= -.19606422E+02 E0= -.19606422E+02  d E =-.507477E-04  mag=    -0.0000
 ZBRENT: can't locate minimum, use default step
 trial-energy change:   -0.000051  1 .order   -0.000052   -0.000053   -0.000050
 step:  11.2000(harm= 50.7723)  dis= 0.00083  next Energy=   -19.606855 (dE=-0.483E-03)
 bond charge predicted
       N       E                     dE             d eps       ncg     rms          rms(c)
DAV:   1    -0.196065611215E+02   -0.13922E-03   -0.53937E-03   240   0.147E-01    0.133E-02
DAV:   2    -0.196065608854E+02    0.23610E-06   -0.24746E-05   160   0.902E-03
   6 F= -.19606561E+02 E0= -.19606561E+02  d E =-.189421E-03  mag=    -0.0000
 curvature:  -8.21 expect dE=-0.969E-04 dE for cont linesearch -0.959E-04
 trial: gam=-0.16487 g(F)=  0.118E-04 g(S)=  0.000E+00 ort = 0.150E-04 (trialstep = 0.448E+01)
 search vector abs. value=  0.738E-05
 bond charge predicted
       N       E                     dE             d eps       ncg     rms          rms(c)
DAV:   1    -0.196065995392E+02   -0.38418E-04   -0.66711E-04   200   0.518E-02    0.766E-03
DAV:   2    -0.196065981485E+02    0.13907E-05   -0.45791E-06   160   0.394E-03
   7 F= -.19606598E+02 E0= -.19606598E+02  d E =-.372631E-04  mag=    -0.0000
 ZBRENT: can't locate minimum, use default step
 trial-energy change:   -0.000037  1 .order   -0.000040   -0.000042   -0.000039
 step:  17.9200(harm= 69.4298)  dis= 0.00074  next Energy=   -19.606885 (dE=-0.324E-03)
 bond charge predicted
       N       E                     dE             d eps       ncg     rms          rms(c)
DAV:   1    -0.196067001487E+02   -0.10061E-03   -0.61446E-03   160   0.156E-01    0.161E-02
DAV:   2    -0.196066993341E+02    0.81455E-06   -0.55174E-05   160   0.135E-02
   8 F= -.19606699E+02 E0= -.19606699E+02  d E =-.138449E-03  mag=    -0.0000
 curvature: -10.19 expect dE=-0.655E-04 dE for cont linesearch -0.589E-04
 trial: gam=-0.16095 g(F)=  0.643E-05 g(S)=  0.000E+00 ort = 0.653E-05 (trialstep = 0.717E+01)
 search vector abs. value=  0.452E-05
 bond charge predicted
       N       E                     dE             d eps       ncg     rms          rms(c)
DAV:   1    -0.196067332623E+02   -0.33114E-04   -0.57622E-04   160   0.499E-02    0.785E-03
DAV:   2    -0.196067318241E+02    0.14382E-05   -0.31354E-06   160   0.372E-03
   9 F= -.19606732E+02 E0= -.19606732E+02  d E =-.324900E-04  mag=    -0.0000
 ZBRENT: can't locate minimum, use default step
 trial-energy change:   -0.000032  1 .order   -0.000036   -0.000039   -0.000034
 step:  28.6720(harm= 63.3832)  dis= 0.00118  next Energy=   -19.606870 (dE=-0.170E-03)
 bond charge predicted
       N       E                     dE             d eps       ncg     rms          rms(c)
DAV:   1    -0.196068077574E+02   -0.74495E-04   -0.52448E-03   160   0.150E-01    0.132E-02
DAV:   2    -0.196068088944E+02   -0.11370E-05   -0.30391E-05   160   0.113E-02
  10 F= -.19606809E+02 E0= -.19606809E+02  d E =-.109560E-03  mag=    -0.0000
 curvature: -16.47 expect dE=-0.465E-04 dE for cont linesearch -0.243E-04
 trial: gam=-0.06882 g(F)=  0.282E-05 g(S)=  0.000E+00 ort = 0.258E-05 (trialstep = 0.115E+02)
 search vector abs. value=  0.249E-05
 reached required accuracy - stopping structural energy minimisation
 writing wavefunctions
