<?xml version="1.0" encoding="ISO-8859-1"?>
<modeling>
 <generator>
  <i name="program" type="string">vasp </i>
  <i name="version" type="string">5.4.1  </i>
  <i name="subversion" type="string">05Feb16 (build Nov 22 2018 20:17:51) complex                          parallel </i>
  <i name="platform" type="string">IFC91_ompi </i>
  <i name="date" type="string">2018 11 25 </i>
  <i name="time" type="string">21:53:44 </i>
 </generator>
 <incar>
  <i type="int" name="ISTART">     0</i>
  <i type="string" name="PREC">normal</i>
  <i type="int" name="NELM">   400</i>
  <i type="int" name="IBRION">     3</i>
  <i name="EDIFF">      0.00001000</i>
  <i name="EDIFFG">     -0.02000000</i>
  <i type="int" name="NSW">   500</i>
  <i type="int" name="ISIF">     3</i>
  <i name="ENCUT">    500.00000000</i>
  <i name="POTIM">      0.00000000</i>
  <i type="int" name="ISMEAR">     0</i>
  <i name="SIGMA">      0.01000000</i>
  <v type="int" name="KPOINT_BSE">    -1     0     0     0</v>
  <i type="int" name="NELM">   400</i>
 </incar>
 <kpoints>
  <generation param="Gamma">
   <v type="int" name="divisions">       5        5        5 </v>
   <v name="usershift">      0.00000000       0.00000000       0.00000000 </v>
   <v name="genvec1">      0.20000000       0.00000000       0.00000000 </v>
   <v name="genvec2">      0.00000000       0.20000000       0.00000000 </v>
   <v name="genvec3">      0.00000000       0.00000000       0.20000000 </v>
   <v name="shift">      0.00000000       0.00000000       0.00000000 </v>
  </generation>
  <varray name="kpointlist" >
   <v>       0.00000000       0.00000000       0.00000000 </v>
   <v>       0.20000000       0.00000000       0.00000000 </v>
   <v>       0.40000000       0.00000000       0.00000000 </v>
   <v>       0.20000000       0.20000000       0.00000000 </v>
   <v>       0.40000000       0.20000000       0.00000000 </v>
   <v>      -0.40000000       0.20000000       0.00000000 </v>
   <v>      -0.20000000       0.20000000       0.00000000 </v>
   <v>       0.40000000       0.40000000       0.00000000 </v>
   <v>      -0.40000000       0.40000000       0.00000000 </v>
   <v>       0.20000000       0.20000000       0.20000000 </v>
   <v>       0.40000000       0.20000000       0.20000000 </v>
   <v>      -0.40000000       0.20000000       0.20000000 </v>
   <v>      -0.20000000       0.20000000       0.20000000 </v>
   <v>       0.40000000       0.40000000       0.20000000 </v>
   <v>      -0.40000000       0.40000000       0.20000000 </v>
   <v>      -0.20000000       0.40000000       0.20000000 </v>
   <v>      -0.40000000      -0.40000000       0.20000000 </v>
   <v>       0.40000000       0.40000000       0.40000000 </v>
   <v>      -0.40000000       0.40000000       0.40000000 </v>
  </varray>
  <varray name="weights" >
   <v>       0.00800000 </v>
   <v>       0.04800000 </v>
   <v>       0.04800000 </v>
   <v>       0.04800000 </v>
   <v>       0.09600000 </v>
   <v>       0.09600000 </v>
   <v>       0.04800000 </v>
   <v>       0.04800000 </v>
   <v>       0.04800000 </v>
   <v>       0.01600000 </v>
   <v>       0.04800000 </v>
   <v>       0.04800000 </v>
   <v>       0.04800000 </v>
   <v>       0.04800000 </v>
   <v>       0.09600000 </v>
   <v>       0.09600000 </v>
   <v>       0.04800000 </v>
   <v>       0.01600000 </v>
   <v>       0.04800000 </v>
  </varray>
 </kpoints>
 <parameters>
  <separator name="general" >
   <i type="string" name="SYSTEM">unknown system</i>
   <i type="logical" name="LCOMPAT"> F  </i>
  </separator>
  <separator name="electronic" >
   <i type="string" name="PREC">normal</i>
   <i name="ENMAX">    500.00000000</i>
   <i name="ENAUG">    322.06900000</i>
   <i name="EDIFF">      0.00001000</i>
   <i type="int" name="IALGO">    38</i>
   <i type="int" name="IWAVPR">    11</i>
   <i type="int" name="NBANDS">   160</i>
   <i name="NELECT">    252.00000000</i>
   <i type="int" name="TURBO">     0</i>
   <i type="int" name="IRESTART">     0</i>
   <i type="int" name="NREBOOT">     0</i>
   <i type="int" name="NMIN">     0</i>
   <i name="EREF">      0.00000000</i>
   <separator name="electronic smearing" >
    <i type="int" name="ISMEAR">     0</i>
    <i name="SIGMA">      0.01000000</i>
    <i name="KSPACING">      0.50000000</i>
    <i type="logical" name="KGAMMA"> T  </i>
   </separator>
   <separator name="electronic projectors" >
    <i type="logical" name="LREAL"> F  </i>
    <v name="ROPT">      0.00000000</v>
    <i type="int" name="LMAXPAW">  -100</i>
    <i type="int" name="LMAXMIX">     2</i>
    <i type="logical" name="NLSPLINE"> F  </i>
   </separator>
   <separator name="electronic startup" >
    <i type="int" name="ISTART">     0</i>
    <i type="int" name="ICHARG">     2</i>
    <i type="int" name="INIWAV">     1</i>
   </separator>
   <separator name="electronic spin" >
    <i type="int" name="ISPIN">     1</i>
    <i type="logical" name="LNONCOLLINEAR"> F  </i>
    <v name="MAGMOM">      1.00000000      1.00000000      1.00000000      1.00000000      1.00000000      1.00000000      1.00000000      1.00000000      1.00000000      1.00000000      1.00000000      1.00000000      1.00000000      1.00000000      1.00000000      1.00000000      1.00000000      1.00000000      1.00000000      1.00000000
      1.00000000      1.00000000      1.00000000      1.00000000      1.00000000      1.00000000      1.00000000      1.00000000      1.00000000      1.00000000      1.00000000      1.00000000      1.00000000      1.00000000      1.00000000      1.00000000      1.00000000      1.00000000      1.00000000      1.00000000
      1.00000000      1.00000000      1.00000000      1.00000000      1.00000000      1.00000000      1.00000000      1.00000000      1.00000000      1.00000000      1.00000000      1.00000000      1.00000000      1.00000000      1.00000000      1.00000000      1.00000000      1.00000000      1.00000000      1.00000000
      1.00000000      1.00000000      1.00000000</v>
    <i name="NUPDOWN">     -1.00000000</i>
    <i type="logical" name="LSORBIT"> F  </i>
    <v name="SAXIS">      0.00000000      0.00000000      1.00000000</v>
    <i type="logical" name="LSPIRAL"> F  </i>
    <v name="QSPIRAL">      0.00000000      0.00000000      0.00000000</v>
    <i type="logical" name="LZEROZ"> F  </i>
   </separator>
   <separator name="electronic exchange-correlation" >
    <i type="logical" name="LASPH"> F  </i>
    <i type="logical" name="LMETAGGA"> F  </i>
   </separator>
   <separator name="electronic convergence" >
    <i type="int" name="NELM">   400</i>
    <i type="int" name="NELMDL">    -5</i>
    <i type="int" name="NELMIN">     2</i>
    <i name="ENINI">    500.00000000</i>
    <separator name="electronic convergence detail" >
     <i type="logical" name="LDIAG"> T  </i>
     <i type="logical" name="LSUBROT"> F  </i>
     <i name="WEIMIN">      0.00100000</i>
     <i name="EBREAK">      0.00000002</i>
     <i name="DEPER">      0.30000000</i>
     <i type="int" name="NRMM">     4</i>
     <i name="TIME">      0.40000000</i>
    </separator>
   </separator>
   <separator name="electronic mixer" >
    <i name="AMIX">      0.40000000</i>
    <i name="BMIX">      1.00000000</i>
    <i name="AMIN">      0.10000000</i>
    <i name="AMIX_MAG">      1.60000000</i>
    <i name="BMIX_MAG">      1.00000000</i>
    <separator name="electronic mixer details" >
     <i type="int" name="IMIX">     4</i>
     <i type="logical" name="MIXFIRST"> F  </i>
     <i type="int" name="MAXMIX">   -45</i>
     <i name="WC">    100.00000000</i>
     <i type="int" name="INIMIX">     1</i>
     <i type="int" name="MIXPRE">     1</i>
     <i type="int" name="MREMOVE">     5</i>
    </separator>
   </separator>
   <separator name="electronic dipolcorrection" >
    <i type="logical" name="LDIPOL"> F  </i>
    <i type="logical" name="LMONO"> F  </i>
    <i type="int" name="IDIPOL">     0</i>
    <i name="EPSILON">      1.00000000</i>
    <v name="DIPOL">   -100.00000000   -100.00000000   -100.00000000</v>
    <i name="EFIELD">      0.00000000</i>
   </separator>
  </separator>
  <separator name="grids" >
   <i type="int" name="NGX">    60</i>
   <i type="int" name="NGY">    60</i>
   <i type="int" name="NGZ">    60</i>
   <i type="int" name="NGXF">   120</i>
   <i type="int" name="NGYF">   120</i>
   <i type="int" name="NGZF">   120</i>
   <i type="logical" name="ADDGRID"> F  </i>
  </separator>
  <separator name="ionic" >
   <i type="int" name="NSW">   500</i>
   <i type="int" name="IBRION">     3</i>
   <i type="int" name="ISIF">     3</i>
   <i name="PSTRESS">      0.00000000</i>
   <i name="EDIFFG">     -0.02000000</i>
   <i type="int" name="NFREE">     0</i>
   <i name="POTIM">      0.00000000</i>
   <i name="SMASS">     -3.00000000</i>
   <i name="SCALEE">      1.00000000</i>
  </separator>
  <separator name="ionic md" >
   <i name="TEBEG">      0.00010000</i>
   <i name="TEEND">      0.00010000</i>
   <i type="int" name="NBLOCK">     1</i>
   <i type="int" name="KBLOCK">   500</i>
   <i type="int" name="NPACO">   256</i>
   <i name="APACO">     16.00000000</i>
  </separator>
  <separator name="symmetry" >
   <i type="int" name="ISYM">     2</i>
   <i name="SYMPREC">      0.00001000</i>
  </separator>
  <separator name="dos" >
   <i type="logical" name="LORBIT"> F  </i>
   <v name="RWIGS">     -1.00000000</v>
   <i type="int" name="NEDOS">   301</i>
   <i name="EMIN">     10.00000000</i>
   <i name="EMAX">    -10.00000000</i>
   <i name="EFERMI">      0.00000000</i>
  </separator>
  <separator name="writing" >
   <i type="int" name="NWRITE">     2</i>
   <i type="logical" name="LWAVE"> T  </i>
   <i type="logical" name="LCHARG"> T  </i>
   <i type="logical" name="LPARD"> F  </i>
   <i type="logical" name="LVTOT"> F  </i>
   <i type="logical" name="LVHAR"> F  </i>
   <i type="logical" name="LELF"> F  </i>
   <i type="logical" name="LOPTICS"> F  </i>
   <v name="STM">      0.00000000      0.00000000      0.00000000      0.00000000      0.00000000      0.00000000      0.00000000</v>
  </separator>
  <separator name="performance" >
   <i type="int" name="NPAR">     8</i>
   <i type="int" name="NSIM">     4</i>
   <i type="int" name="NBLK">    -1</i>
   <i type="logical" name="LPLANE"> T  </i>
   <i type="logical" name="LSCALAPACK"> T  </i>
   <i type="logical" name="LSCAAWARE"> F  </i>
   <i type="logical" name="LSCALU"> F  </i>
   <i type="logical" name="LASYNC"> F  </i>
   <i type="logical" name="LORBITALREAL"> F  </i>
  </separator>
  <separator name="miscellaneous" >
   <i type="int" name="IDIOT">     3</i>
   <i type="logical" name="LMUSIC"> F  </i>
   <v name="POMASS">     28.08500000</v>
   <v name="DARWINR">      0.00000000</v>
   <v name="DARWINV">      1.00000000</v>
   <i type="logical" name="LCORR"> T  </i>
  </separator>
  <i type="logical" name="GGA_COMPAT"> T  </i>
  <i type="logical" name="LBERRY"> F  </i>
  <i type="int" name="ICORELEVEL">     0</i>
  <i type="logical" name="LDAU"> F  </i>
  <i type="int" name="I_CONSTRAINED_M">     0</i>
  <separator name="electronic exchange-correlation" >
   <i type="string" name="GGA">--</i>
   <i type="int" name="VOSKOWN">     0</i>
   <i type="logical" name="LHFCALC"> F  </i>
   <i type="string" name="PRECFOCK"></i>
   <i type="logical" name="LSYMGRAD"> F  </i>
   <i type="logical" name="LHFONE"> F  </i>
   <i type="logical" name="LRHFCALC"> F  </i>
   <i type="logical" name="LTHOMAS"> F  </i>
   <i type="logical" name="LMODELHF"> F  </i>
   <i name="ENCUT4O">     -1.00000000</i>
   <i type="int" name="EXXOEP">     0</i>
   <i type="int" name="FOURORBIT">     0</i>
   <i name="AEXX">      0.00000000</i>
   <i name="HFALPHA">      0.00000000</i>
   <i name="MCALPHA">      0.00000000</i>
   <i name="ALDAX">      1.00000000</i>
   <i name="AGGAX">      1.00000000</i>
   <i name="ALDAC">      1.00000000</i>
   <i name="AGGAC">      1.00000000</i>
   <i type="int" name="NKREDX">     1</i>
   <i type="int" name="NKREDY">     1</i>
   <i type="int" name="NKREDZ">     1</i>
   <i type="logical" name="SHIFTRED"> F  </i>
   <i type="logical" name="ODDONLY"> F  </i>
   <i type="logical" name="EVENONLY"> F  </i>
   <i type="int" name="LMAXFOCK">     0</i>
   <i type="int" name="NMAXFOCKAE">     0</i>
   <i type="logical" name="LFOCKAEDFT"> F  </i>
   <i name="HFSCREEN">      0.00000000</i>
   <i name="HFSCREENC">      0.00000000</i>
   <i type="int" name="NBANDSGWLOW">     0</i>
  </separator>
  <separator name="vdW DFT" >
   <i type="logical" name="LUSE_VDW"> F  </i>
   <i name="Zab_VDW">     -0.84910000</i>
   <i name="PARAM1">      0.12340000</i>
   <i name="PARAM2">      1.00000000</i>
   <i name="PARAM3">      0.00000000</i>
  </separator>
  <separator name="model GW" >
   <i type="int" name="MODEL_GW">     0</i>
   <i name="MODEL_EPS0">     12.31730837</i>
   <i name="MODEL_ALPHA">      1.00000000</i>
  </separator>
  <separator name="linear response parameters" >
   <i type="logical" name="LEPSILON"> F  </i>
   <i type="logical" name="LRPA"> F  </i>
   <i type="logical" name="LNABLA"> F  </i>
   <i type="logical" name="LVEL"> F  </i>
   <i type="int" name="KINTER">     0</i>
   <i name="CSHIFT">      0.10000000</i>
   <i name="OMEGAMAX">     -1.00000000</i>
   <i name="DEG_THRESHOLD">      0.00200000</i>
  </separator>
  <separator name="orbital magnetization" >
   <i type="logical" name="NUCIND"> F  </i>
   <v name="MAGPOS">      0.00000000      0.00000000      0.00000000</v>
   <i type="logical" name="LNICSALL"> T  </i>
   <i type="logical" name="ORBITALMAG"> F  </i>
   <i type="logical" name="LMAGBLOCH"> F  </i>
   <i type="logical" name="LCHIMAG"> F  </i>
   <i type="logical" name="LGAUGE"> T  </i>
   <i type="int" name="MAGATOM">     0</i>
   <v name="MAGDIPOL">      0.00000000      0.00000000      0.00000000</v>
   <v name="AVECCONST">      0.00000000      0.00000000      0.00000000</v>
  </separator>
  <separator name="response functions" >
   <i type="logical" name="LADDER"> F  </i>
   <i type="logical" name="LFXC"> F  </i>
   <i type="logical" name="LHARTREE"> T  </i>
   <i type="int" name="IBSE">     0</i>
   <v type="int" name="KPOINT">    -1     0     0     0</v>
   <i type="logical" name="LTCTE"> F  </i>
   <i type="logical" name="LTETE"> F  </i>
   <i type="logical" name="LTRIPLET"> F  </i>
   <i type="logical" name="LFXCEPS"> F  </i>
   <i type="logical" name="LFXHEG"> F  </i>
   <i type="int" name="NATURALO">     0</i>
   <i type="logical" name="L2ORDER"> F  </i>
   <i type="logical" name="LUSEW"> F  </i>
   <i name="ENCUTGW">     -2.00000000</i>
   <i name="ENCUTGWSOFT">     -2.00000000</i>
   <i name="ENCUTLF">     -1.00000000</i>
   <i type="int" name="LMAXMP2">    -1</i>
   <i name="SCISSOR">      0.00000000</i>
   <i type="int" name="NOMEGA">     0</i>
   <i type="int" name="NOMEGAR">     0</i>
   <i type="int" name="NBANDSGW">    -1</i>
   <i type="int" name="NBANDSO">    -1</i>
   <i type="int" name="NBANDSV">    -1</i>
   <i type="int" name="NELM">   400</i>
   <i type="int" name="NELMHF">     1</i>
   <i type="int" name="DIM">     3</i>
   <i type="int" name="ANTIRES">     0</i>
   <i name="OMEGAMAX">    -30.00000000</i>
   <i name="OMEGAMIN">    -30.00000000</i>
   <i name="OMEGATL">   -200.00000000</i>
   <i type="int" name="OMEGAGRID">     0</i>
   <i name="CSHIFT">     -0.10000000</i>
   <i type="logical" name="SELFENERGY"> F  </i>
   <i type="logical" name="LSPECTRAL"> F  </i>
   <i type="logical" name="LSPECTRALGW"> F  </i>
   <i type="logical" name="LSINGLES"> F  </i>
   <i type="logical" name="LFERMIGW"> F  </i>
   <i type="logical" name="ODDONLYGW"> F  </i>
   <i type="logical" name="EVENONLYGW"> F  </i>
   <i type="int" name="NKREDLFX">     1</i>
   <i type="int" name="NKREDLFY">     1</i>
   <i type="int" name="NKREDLFZ">     1</i>
   <i type="int" name="MAXMEM">  1800</i>
   <i type="int" name="TELESCOPE">     0</i>
   <i type="int" name="TAUPAR">     1</i>
   <i type="int" name="OMEGAPAR">    -1</i>
   <i name="LAMBDA">      1.00000000</i>
  </separator>
  <separator name="External order field" >
   <i name="OFIELD_KAPPA">      0.00000000</i>
   <v name="OFIELD_K">      0.00000000      0.00000000      0.00000000</v>
   <i name="OFIELD_Q6_NEAR">      0.00000000</i>
   <i name="OFIELD_Q6_FAR">      0.00000000</i>
   <i name="OFIELD_A">      0.00000000</i>
  </separator>
 </parameters>
 <atominfo>
  <atoms>      63 </atoms>
  <types>       1 </types>
  <array name="atoms" >
   <dimension dim="1">ion</dimension>
   <field type="string">element</field>
   <field type="int">atomtype</field>
   <set>
    <rc><c>Si</c><c>   1</c></rc>
    <rc><c>Si</c><c>   1</c></rc>
    <rc><c>Si</c><c>   1</c></rc>
    <rc><c>Si</c><c>   1</c></rc>
    <rc><c>Si</c><c>   1</c></rc>
    <rc><c>Si</c><c>   1</c></rc>
    <rc><c>Si</c><c>   1</c></rc>
    <rc><c>Si</c><c>   1</c></rc>
    <rc><c>Si</c><c>   1</c></rc>
    <rc><c>Si</c><c>   1</c></rc>
    <rc><c>Si</c><c>   1</c></rc>
    <rc><c>Si</c><c>   1</c></rc>
    <rc><c>Si</c><c>   1</c></rc>
    <rc><c>Si</c><c>   1</c></rc>
    <rc><c>Si</c><c>   1</c></rc>
    <rc><c>Si</c><c>   1</c></rc>
    <rc><c>Si</c><c>   1</c></rc>
    <rc><c>Si</c><c>   1</c></rc>
    <rc><c>Si</c><c>   1</c></rc>
    <rc><c>Si</c><c>   1</c></rc>
    <rc><c>Si</c><c>   1</c></rc>
    <rc><c>Si</c><c>   1</c></rc>
    <rc><c>Si</c><c>   1</c></rc>
    <rc><c>Si</c><c>   1</c></rc>
    <rc><c>Si</c><c>   1</c></rc>
    <rc><c>Si</c><c>   1</c></rc>
    <rc><c>Si</c><c>   1</c></rc>
    <rc><c>Si</c><c>   1</c></rc>
    <rc><c>Si</c><c>   1</c></rc>
    <rc><c>Si</c><c>   1</c></rc>
    <rc><c>Si</c><c>   1</c></rc>
    <rc><c>Si</c><c>   1</c></rc>
    <rc><c>Si</c><c>   1</c></rc>
    <rc><c>Si</c><c>   1</c></rc>
    <rc><c>Si</c><c>   1</c></rc>
    <rc><c>Si</c><c>   1</c></rc>
    <rc><c>Si</c><c>   1</c></rc>
    <rc><c>Si</c><c>   1</c></rc>
    <rc><c>Si</c><c>   1</c></rc>
    <rc><c>Si</c><c>   1</c></rc>
    <rc><c>Si</c><c>   1</c></rc>
    <rc><c>Si</c><c>   1</c></rc>
    <rc><c>Si</c><c>   1</c></rc>
    <rc><c>Si</c><c>   1</c></rc>
    <rc><c>Si</c><c>   1</c></rc>
    <rc><c>Si</c><c>   1</c></rc>
    <rc><c>Si</c><c>   1</c></rc>
    <rc><c>Si</c><c>   1</c></rc>
    <rc><c>Si</c><c>   1</c></rc>
    <rc><c>Si</c><c>   1</c></rc>
    <rc><c>Si</c><c>   1</c></rc>
    <rc><c>Si</c><c>   1</c></rc>
    <rc><c>Si</c><c>   1</c></rc>
    <rc><c>Si</c><c>   1</c></rc>
    <rc><c>Si</c><c>   1</c></rc>
    <rc><c>Si</c><c>   1</c></rc>
    <rc><c>Si</c><c>   1</c></rc>
    <rc><c>Si</c><c>   1</c></rc>
    <rc><c>Si</c><c>   1</c></rc>
    <rc><c>Si</c><c>   1</c></rc>
    <rc><c>Si</c><c>   1</c></rc>
    <rc><c>Si</c><c>   1</c></rc>
    <rc><c>Si</c><c>   1</c></rc>
   </set>
  </array>
  <array name="atomtypes" >
   <dimension dim="1">type</dimension>
   <field type="int">atomspertype</field>
   <field type="string">element</field>
   <field>mass</field>
   <field>valence</field>
   <field type="string">pseudopotential</field>
   <set>
    <rc><c>  63</c><c>Si</c><c>     28.08500000</c><c>      4.00000000</c><c> PAW_GGA Si 05Jan2001                   </c></rc>
   </set>
  </array>
 </atominfo>
 <structure name="initialpos" >
  <crystal>
   <varray name="basis" >
    <v>      10.89519570       0.00000000       0.00000000 </v>
    <v>       0.00000000      10.89519570       0.00000000 </v>
    <v>       0.00000000       0.00000000      10.89519570 </v>
   </varray>
   <i name="volume">   1293.31735933 </i>
   <varray name="rec_basis" >
    <v>       0.09178357       0.00000000       0.00000000 </v>
    <v>       0.00000000       0.09178357       0.00000000 </v>
    <v>       0.00000000       0.00000000       0.09178357 </v>
   </varray>
  </crystal>
  <varray name="positions" >
   <v>       0.08017909       0.08017909       0.08017909 </v>
   <v>       0.00340135       0.24432404       0.24432404 </v>
   <v>       0.24432404       0.24432404       0.00340135 </v>
   <v>       0.24432404       0.00340135       0.24432404 </v>
   <v>       0.37284079       0.12479423       0.37284079 </v>
   <v>       0.12479423       0.37284079       0.37284079 </v>
   <v>       0.37284079       0.37284079       0.12479423 </v>
   <v>       0.49974892       0.00009163       0.00009163 </v>
   <v>       0.49964100       0.24955396       0.24955396 </v>
   <v>       0.75277281       0.24738662       0.99984450 </v>
   <v>       0.75277281       0.99984450       0.24738662 </v>
   <v>       0.87644411       0.12494031       0.37323699 </v>
   <v>       0.62550215       0.12481674       0.12481674 </v>
   <v>       0.62508439       0.37479237       0.37479237 </v>
   <v>       0.87644411       0.37323699       0.12494031 </v>
   <v>       0.00009163       0.49974892       0.00009163 </v>
   <v>       0.99984450       0.75277281       0.24738662 </v>
   <v>       0.24738662       0.75277281       0.99984450 </v>
   <v>       0.24955396       0.49964100       0.24955396 </v>
   <v>       0.37479237       0.62508439       0.37479237 </v>
   <v>       0.12481674       0.62550215       0.12481674 </v>
   <v>       0.12494031       0.87644411       0.37323699 </v>
   <v>       0.37323699       0.87644411       0.12494031 </v>
   <v>       0.49955083       0.49955083       0.00004109 </v>
   <v>       0.49965875       0.75080355       0.24960450 </v>
   <v>       0.75297090       0.75297090       0.00028822 </v>
   <v>       0.75080355       0.49965875       0.24960450 </v>
   <v>       0.87525939       0.62584439       0.37392446 </v>
   <v>       0.62589835       0.62589835       0.12491780 </v>
   <v>       0.62584439       0.87525939       0.37392446 </v>
   <v>       0.88256931       0.88256931       0.11856797 </v>
   <v>       0.00009163       0.00009163       0.49974892 </v>
   <v>       0.99984450       0.24738662       0.75277281 </v>
   <v>       0.24955396       0.24955396       0.49964100 </v>
   <v>       0.24738662       0.99984450       0.75277281 </v>
   <v>       0.37323699       0.12494031       0.87644411 </v>
   <v>       0.12481674       0.12481674       0.62550215 </v>
   <v>       0.12494031       0.37323699       0.87644411 </v>
   <v>       0.37479237       0.37479237       0.62508439 </v>
   <v>       0.49955083       0.00004109       0.49955083 </v>
   <v>       0.49965875       0.24960450       0.75080355 </v>
   <v>       0.75080355       0.24960450       0.49965875 </v>
   <v>       0.75297090       0.00028822       0.75297090 </v>
   <v>       0.88256931       0.11856797       0.88256931 </v>
   <v>       0.62589835       0.12491780       0.62589835 </v>
   <v>       0.62584439       0.37392446       0.87525939 </v>
   <v>       0.87525939       0.37392446       0.62584439 </v>
   <v>       0.00004109       0.49955083       0.49955083 </v>
   <v>       0.00028822       0.75297090       0.75297090 </v>
   <v>       0.24960450       0.75080355       0.49965875 </v>
   <v>       0.24960450       0.49965875       0.75080355 </v>
   <v>       0.37392446       0.62584439       0.87525939 </v>
   <v>       0.12491780       0.62589835       0.62589835 </v>
   <v>       0.11856797       0.88256931       0.88256931 </v>
   <v>       0.37392446       0.87525939       0.62584439 </v>
   <v>       0.49998478       0.49998478       0.49998478 </v>
   <v>       0.49987686       0.75036960       0.75036960 </v>
   <v>       0.75036960       0.75036960       0.49987686 </v>
   <v>       0.75036960       0.49987686       0.75036960 </v>
   <v>       0.87536045       0.62555611       0.87536045 </v>
   <v>       0.62503043       0.62503043       0.62503043 </v>
   <v>       0.62555611       0.87536045       0.87536045 </v>
   <v>       0.87536045       0.87536045       0.62555611 </v>
  </varray>
 </structure>
 <calculation>
  <scstep>
   <time name="dav">  125.13  125.44</time>
   <time name="total">  125.35  125.65</time>
   <energy>
    <i name="alphaZ">     99.58657397 </i>
    <i name="ewald">  -7134.61912712 </i>
    <i name="hartreedc">   -366.74240168 </i>
    <i name="XCdc">   -605.37346017 </i>
    <i name="pawpsdc">   2094.23445331 </i>
    <i name="pawaedc">   -974.11309902 </i>
    <i name="eentropy">     -0.00084967 </i>
    <i name="bandstr">   1045.95587301 </i>
    <i name="atom">   6508.33789254 </i>
    <i name="e_fr_energy">    667.26585516 </i>
    <i name="e_wo_entrp">    667.26670483 </i>
    <i name="e_0_energy">    667.26627999 </i>
   </energy>
  </scstep>
  <scstep>
   <time name="dav">  143.59  143.93</time>
   <time name="total">  143.59  143.94</time>
   <energy>
    <i name="e_fr_energy">   -270.72772071 </i>
    <i name="e_wo_entrp">   -270.72693536 </i>
    <i name="e_0_energy">   -270.72732803 </i>
   </energy>
  </scstep>
  <scstep>
   <time name="dav">  146.87  147.22</time>
   <time name="total">  146.88  147.23</time>
   <energy>
    <i name="e_fr_energy">   -341.53989520 </i>
    <i name="e_wo_entrp">   -341.53886582 </i>
    <i name="e_0_energy">   -341.53938051 </i>
   </energy>
  </scstep>
  <scstep>
   <time name="dav">  145.93  146.28</time>
   <time name="total">  145.93  146.28</time>
   <energy>
    <i name="e_fr_energy">   -343.49643972 </i>
    <i name="e_wo_entrp">   -343.49546582 </i>
    <i name="e_0_energy">   -343.49595277 </i>
   </energy>
  </scstep>
  <scstep>
   <time name="dav">  144.71  145.05</time>
   <time name="total">  146.38  146.73</time>
   <energy>
    <i name="e_fr_energy">   -343.55714399 </i>
    <i name="e_wo_entrp">   -343.55617842 </i>
    <i name="e_0_energy">   -343.55666121 </i>
   </energy>
  </scstep>
  <scstep>
   <time name="dav">  140.72  141.06</time>
   <time name="total">  142.63  142.97</time>
   <energy>
    <i name="e_fr_energy">   -339.92431734 </i>
    <i name="e_wo_entrp">   -339.92331895 </i>
    <i name="e_0_energy">   -339.92381814 </i>
   </energy>
  </scstep>
  <scstep>
   <time name="dav">  135.75  136.07</time>
   <time name="total">  137.59  137.92</time>
   <energy>
    <i name="e_fr_energy">   -338.41221581 </i>
    <i name="e_wo_entrp">   -338.41131739 </i>
    <i name="e_0_energy">   -338.41176660 </i>
   </energy>
  </scstep>
  <scstep>
   <time name="dav">  142.71  143.05</time>
   <time name="total">  144.53  144.87</time>
   <energy>
    <i name="e_fr_energy">   -338.43474983 </i>
    <i name="e_wo_entrp">   -338.43379198 </i>
    <i name="e_0_energy">   -338.43427091 </i>
   </energy>
  </scstep>
  <scstep>
   <time name="dav">  138.46  138.79</time>
   <time name="total">  140.27  140.60</time>
   <energy>
    <i name="e_fr_energy">   -338.44378447 </i>
    <i name="e_wo_entrp">   -338.44281238 </i>
    <i name="e_0_energy">   -338.44329843 </i>
   </energy>
  </scstep>
  <scstep>
   <time name="dav">  138.02  138.35</time>
   <time name="total">  139.86  140.19</time>
   <energy>
    <i name="e_fr_energy">   -338.44543560 </i>
    <i name="e_wo_entrp">   -338.44446959 </i>
    <i name="e_0_energy">   -338.44495260 </i>
   </energy>
  </scstep>
  <scstep>
   <time name="dav">  143.96  144.30</time>
   <time name="total">  145.78  146.13</time>
   <energy>
    <i name="e_fr_energy">   -338.44560167 </i>
    <i name="e_wo_entrp">   -338.44463807 </i>
    <i name="e_0_energy">   -338.44511987 </i>
   </energy>
  </scstep>
  <scstep>
   <time name="dav">  143.18  143.52</time>
   <time name="total">  145.03  145.37</time>
   <energy>
    <i name="e_fr_energy">   -338.44572287 </i>
    <i name="e_wo_entrp">   -338.44475938 </i>
    <i name="e_0_energy">   -338.44524113 </i>
   </energy>
  </scstep>
  <scstep>
   <time name="dav">  125.44  125.73</time>
   <time name="total">  125.64  125.94</time>
   <energy>
    <i name="alphaZ">     99.58657397 </i>
    <i name="ewald">  -7134.61912712 </i>
    <i name="hartreedc">   -482.65588330 </i>
    <i name="XCdc">   -585.74541050 </i>
    <i name="pawpsdc">   2326.62534825 </i>
    <i name="pawaedc">  -1212.70316772 </i>
    <i name="eentropy">     -0.00096392 </i>
    <i name="bandstr">    142.72901357 </i>
    <i name="atom">   6508.33789254 </i>
    <i name="e_fr_energy">   -338.44572423 </i>
    <i name="e_wo_entrp">   -338.44476030 </i>
    <i name="e_0_energy">   -338.44524227 </i>
   </energy>
  </scstep>
  <structure>
   <crystal>
    <varray name="basis" >
     <v>      10.89519569       0.00000000       0.00000000 </v>
     <v>       0.00000000      10.89519569       0.00000000 </v>
     <v>       0.00000000       0.00000000      10.89519569 </v>
    </varray>
    <i name="volume">   1293.31735277 </i>
    <varray name="rec_basis" >
     <v>       0.09178357       0.00000000       0.00000000 </v>
     <v>       0.00000000       0.09178357       0.00000000 </v>
     <v>       0.00000000       0.00000000       0.09178357 </v>
    </varray>
   </crystal>
   <varray name="positions" >
    <v>       0.09785820       0.09785820       0.09785820 </v>
    <v>       0.00188602       0.24527071       0.24527071 </v>
    <v>       0.24527071       0.24527071       0.00188602 </v>
    <v>       0.24527071       0.00188602       0.24527071 </v>
    <v>       0.37324664       0.12483546       0.37324664 </v>
    <v>       0.12483546       0.37324664       0.37324664 </v>
    <v>       0.37324664       0.37324664       0.12483546 </v>
    <v>       0.49987446       0.00004582       0.00004582 </v>
    <v>       0.49973956       0.24951118       0.24951118 </v>
    <v>       0.75327770       0.24680200       0.99973690 </v>
    <v>       0.75327770       0.99973690       0.24680200 </v>
    <v>       0.87585950       0.12483270       0.37374188 </v>
    <v>       0.62562769       0.12477092       0.12477092 </v>
    <v>       0.62506502       0.37487336       0.37487336 </v>
    <v>       0.87585950       0.37374188       0.12483270 </v>
    <v>       0.00004582       0.49987446       0.00004582 </v>
    <v>       0.99973690       0.75327770       0.24680200 </v>
    <v>       0.24680200       0.75327770       0.99973690 </v>
    <v>       0.24951118       0.49973956       0.24951118 </v>
    <v>       0.37487336       0.62506502       0.37487336 </v>
    <v>       0.12477092       0.62562769       0.12477092 </v>
    <v>       0.12483270       0.87585950       0.37374188 </v>
    <v>       0.37374188       0.87585950       0.12483270 </v>
    <v>       0.49977541       0.49977541       0.00002055 </v>
    <v>       0.49991032       0.75066757       0.24953645 </v>
    <v>       0.75337675       0.75337675       0.00032946 </v>
    <v>       0.75066757       0.49991032       0.24953645 </v>
    <v>       0.87519134       0.62609595       0.37378847 </v>
    <v>       0.62612293       0.62612293       0.12489724 </v>
    <v>       0.62609595       0.87519134       0.37378847 </v>
    <v>       0.88351600       0.88351600       0.11705264 </v>
    <v>       0.00004582       0.00004582       0.49987446 </v>
    <v>       0.99973690       0.24680200       0.75327770 </v>
    <v>       0.24951118       0.24951118       0.49973956 </v>
    <v>       0.24680200       0.99973690       0.75327770 </v>
    <v>       0.37374188       0.12483270       0.87585950 </v>
    <v>       0.12477092       0.12477092       0.62562769 </v>
    <v>       0.12483270       0.37374188       0.87585950 </v>
    <v>       0.37487336       0.37487336       0.62506502 </v>
    <v>       0.49977541       0.00002055       0.49977541 </v>
    <v>       0.49991032       0.24953645       0.75066757 </v>
    <v>       0.75066757       0.24953645       0.49991032 </v>
    <v>       0.75337675       0.00032946       0.75337675 </v>
    <v>       0.88351600       0.11705264       0.88351600 </v>
    <v>       0.62612293       0.12489724       0.62612293 </v>
    <v>       0.62609595       0.37378847       0.87519134 </v>
    <v>       0.87519134       0.37378847       0.62609595 </v>
    <v>       0.00002055       0.49977541       0.49977541 </v>
    <v>       0.00032946       0.75337675       0.75337675 </v>
    <v>       0.24953645       0.75066757       0.49991032 </v>
    <v>       0.24953645       0.49991032       0.75066757 </v>
    <v>       0.37378847       0.62609595       0.87519134 </v>
    <v>       0.12489724       0.62612293       0.62612293 </v>
    <v>       0.11705264       0.88351600       0.88351600 </v>
    <v>       0.37378847       0.87519134       0.62609595 </v>
    <v>       0.49999239       0.49999239       0.49999239 </v>
    <v>       0.49985749       0.75045059       0.75045059 </v>
    <v>       0.75045059       0.75045059       0.49985749 </v>
    <v>       0.75045059       0.49985749       0.75045059 </v>
    <v>       0.87531767       0.62565467       0.87531767 </v>
    <v>       0.62503804       0.62503804       0.62503804 </v>
    <v>       0.62565467       0.87531767       0.87531767 </v>
    <v>       0.87531767       0.87531767       0.62565467 </v>
   </varray>
  </structure>
  <varray name="forces" >
   <v>       0.47961431       0.47961431       0.47961431 </v>
   <v>       0.01859157      -0.37946793      -0.37946793 </v>
   <v>      -0.37946793      -0.37946793       0.01859157 </v>
   <v>      -0.37946793       0.01859157      -0.37946793 </v>
   <v>      -0.03658135       0.06082864      -0.03658135 </v>
   <v>       0.06082864      -0.03658135      -0.03658135 </v>
   <v>      -0.03658135      -0.03658135       0.06082864 </v>
   <v>      -0.00261822      -0.00859171      -0.00859171 </v>
   <v>       0.01261763       0.02097493       0.02097493 </v>
   <v>       0.01587293       0.00130126       0.01652546 </v>
   <v>       0.01587293       0.01652546       0.00130126 </v>
   <v>      -0.02287309       0.07399147       0.02983264 </v>
   <v>      -0.01871155      -0.00066440      -0.00066440 </v>
   <v>       0.00156722      -0.00420780      -0.00420780 </v>
   <v>      -0.02287309       0.02983264       0.07399147 </v>
   <v>      -0.00859171      -0.00261822      -0.00859171 </v>
   <v>       0.01652546       0.01587293       0.00130126 </v>
   <v>       0.00130126       0.01587293       0.01652546 </v>
   <v>       0.02097493       0.01261763       0.02097493 </v>
   <v>      -0.00420780       0.00156722      -0.00420780 </v>
   <v>      -0.00066440      -0.01871155      -0.00066440 </v>
   <v>       0.07399147      -0.02287309       0.02983264 </v>
   <v>       0.02983264      -0.02287309       0.07399147 </v>
   <v>      -0.00988492      -0.00988492      -0.01093692 </v>
   <v>       0.00421211      -0.00620572      -0.03296428 </v>
   <v>       0.01939878       0.01939878      -0.05467161 </v>
   <v>      -0.00620572       0.00421211      -0.03296428 </v>
   <v>      -0.04027409      -0.01399870       0.00770562 </v>
   <v>      -0.01343698      -0.01343698       0.07953359 </v>
   <v>      -0.01399870      -0.04027409       0.00770562 </v>
   <v>       0.06306754       0.06306754       0.07922185 </v>
   <v>      -0.00859171      -0.00859171      -0.00261822 </v>
   <v>       0.01652546       0.00130126       0.01587293 </v>
   <v>       0.02097493       0.02097493       0.01261763 </v>
   <v>       0.00130126       0.01652546       0.01587293 </v>
   <v>       0.02983264       0.07399147      -0.02287309 </v>
   <v>      -0.00066440      -0.00066440      -0.01871155 </v>
   <v>       0.07399147       0.02983264      -0.02287309 </v>
   <v>      -0.00420780      -0.00420780       0.00156722 </v>
   <v>      -0.00988492      -0.01093692      -0.00988492 </v>
   <v>       0.00421211      -0.03296428      -0.00620572 </v>
   <v>      -0.00620572      -0.03296428       0.00421211 </v>
   <v>       0.01939878      -0.05467161       0.01939878 </v>
   <v>       0.06306754       0.07922185       0.06306754 </v>
   <v>      -0.01343698       0.07953359      -0.01343698 </v>
   <v>      -0.01399870       0.00770562      -0.04027409 </v>
   <v>      -0.04027409       0.00770562      -0.01399870 </v>
   <v>      -0.01093692      -0.00988492      -0.00988492 </v>
   <v>      -0.05467161       0.01939878       0.01939878 </v>
   <v>      -0.03296428      -0.00620572       0.00421211 </v>
   <v>      -0.03296428       0.00421211      -0.00620572 </v>
   <v>       0.00770562      -0.01399870      -0.04027409 </v>
   <v>       0.07953359      -0.01343698      -0.01343698 </v>
   <v>       0.07922185       0.06306754       0.06306754 </v>
   <v>       0.00770562      -0.04027409      -0.01399870 </v>
   <v>      -0.00479076      -0.00479076      -0.00479076 </v>
   <v>      -0.00399533       0.00218259       0.00218259 </v>
   <v>       0.00218259       0.00218259      -0.00399533 </v>
   <v>       0.00218259      -0.00399533       0.00218259 </v>
   <v>       0.00310569      -0.01502937       0.00310569 </v>
   <v>       0.00073886       0.00073886       0.00073886 </v>
   <v>      -0.01502937       0.00310569       0.00310569 </v>
   <v>       0.00310569       0.00310569      -0.01502937 </v>
  </varray>
  <varray name="stress" >
   <v>      -1.82676751      -1.02852812      -1.02852812 </v>
   <v>      -1.02852812      -1.82676751      -1.02852812 </v>
   <v>      -1.02852812      -1.02852812      -1.82676751 </v>
  </varray>
  <energy>
   <i name="e_fr_energy">   -338.14970611 </i>
   <i name="e_wo_entrp">   -338.14941961 </i>
   <i name="e_0_energy">     -0.00057300 </i>
  </energy>
  <time name="totalsc"> 2082.33 2087.31</time>
 </calculation>
 <calculation>
  <scstep>
   <time name="dav">  130.   <time name="dav   <time name="total">  13   <time name="total">  132.61  132.92</time>
   <energy>
    <i name="alphaZ">    100.03696722 </i>
    <i name="ewald">  -7153.01005134 </i>
    <i name="hartreedc">   -477.01608440 </i>
    <i name="XCdc">   -585.44708343 </i>
    <i name="pawpsdc">   2323.60495096 </i>
    <i name="pawaedc">  -1209.60232641 </i>
    <i name="eentropy">     -0.00047683 </i>
    <i name="bandstr">    155.05090301 </i>
    <i name="atom">   6508.33789254 </i>
    <i name="e_fr_energy">   -338.04530866 </i>
    <i name="e_wo_entrp">   -338.04483184 </i>
    <i name="e_0_energy">   -338.04507025 </i>
   </energ   <time name="dav">  143.   <time name="dav   <time name="total">  14   <time name="total">  144.85  145.19</time>
   <energy>
    <i name="e_fr_energy">   -338.04265818 </i>
    <i name="e_wo_entrp">   -338.04218581 </i>
    <i name="e_0_energy">   -338.04242200 </i>
   </energ   <time name="dav">  135.   <time name="dav   <time name="total">  13   <time name="total">  138.12  138.45</time>
   <energy>
    <i name="e_fr_energy">   -338.04081293 </i>
    <i name="e_wo_entrp">   -338.04034537 </i>
    <i name="e_0_energy">   -338.04057915 </i>
   </energ   <time name="dav">  139.   <time name="dav   <time name="total">  14   <time name="total">  139.61  139.95</time>
   <energy>
    <i name="e_fr_energy">   -338.04085386 </i>
    <i name="e_wo_entrp">   -338.04038668 </i>
    <i name="e_0_energy">   -338.04062027 </i>
   </energ   <time name="dav">   99.   <time name="dav">  117.36  117.64</time>
   <time name="total">  117.54  117.82</time>
   <energy>
    <i name="alphaZ">    100.03696722 </i>
    <i name="ewald">  -7153.01005134 </i>
    <i name="hartreedc">   -474.69505089 </i>
    <i name="XCdc">   -585.47596312 </i>
    <i name="pawpsdc">   2327.53838584 </i>
    <i name="pawaedc">  -1213.63489065 </i>
    <i name="eentropy">     -0.00046618 </i  <structure>
   <crystal>
    <varray name="basis" >
     <v>      10.88780325       0.00000000       0.00000000 </v>
     <v>      -0.00416218      10.88780325       0.00000000 </v>
     <v>      -0.00416218      -0.00416218    <structure>
   <crystal>  <structure>
   <crystal>
    <varray name="basis" >
     <v>      10.87882005       0.00000000       0.00000000 </v>
     <v>      -0.01402904      10.87882005       0.00000000 </v>
     <v>      -0.01402904      -0.01402904      10.87882005 </v>
    </varray>
    <i name="volume">   1287.49449125 </i>
    <varray name="rec_basis" >
     <v>       0.09192173       0.00011854       0.00011869 </v>
     <v>       0.00000000       0.09192173       0.00011854 </v>
     <v>       0.00000000       0.00000000       0.09192173 </v>
    </varray>
   </crystal>
   <varray name="positions" >
    <v>       0.06249998       0.06249998       0.06249998 </v>
    <v>       0.00469808       0.24295738       0.24295738 </v>
    <v>       0.24295738       0.24295738       0.00469808 </v>
    <v>       0.24295738       0.00469808       0.24295738 </v>
    <v>       0.37237528       0.12488806       0.37237528 </v>
    <v>       0.12488806       0.37237528       0.37237528 </v>
    <v>       0.37237528       0.37237528       0.12488806 </v>
    <v>       0.49963468       0.00013408       0.00013408 </v>
    <v>       0.49956317       0.24960708       0.24960708 </v>
    <v>       0.75226157       0.24799503       0.99990438 </v>
    <v>       0.75226157       0.99990438       0.24799503 </v>
    <v>       0.87700494       0.12509563       0.37273843 </v>
    <v>       0.62536532       0.12486592       0.12486592 </v>
    <v>       0.62510332       0.37470055       0.37470055 </v>
    <v>       0.87700494       0.37273843       0.12509563 </v>
    <v>       0.00013408       0.49963468       0.00013408 </v>
    <v>       0.99990438       0.75226157       0.24799503 </v>
    <v>       0.24799503       0.75226157       0.99990438 </v>
    <v>       0.24960708       0.49956317       0.24960708 </v>
    <v>       0.37470055       0.62510332       0.37470055 </v>
    <v>       0.12486592       0.62536532       0.12486592 </v>
    <v>       0.12509563       0.87700494       0.37273843 </v>
    <v>       0.37273843       0.87700494       0.12509563 </v>
    <v>       0.49933037       0.49933037      -0.00002849 </v>
    <v>       0.49942257       0.75093825       0.24966935 </v>
    <v>       0.75262471       0.75262471       0.00011192 </v>
    <v>       0.75093825       0.49942257       0.24966935 </v>
    <v>       0.87533065       0.62557745       0.37406173 </v>
    <v>       0.62566964       0.62566964       0.12502848 </v>
    <v>       0.62557745       0.87533065       0.37406173 </v>
    <v>       0.88204261       0.88204261       0.12030189 </v>
    <v>       0.00013408       0.00013408       0.49963468 </v>
    <v>       0.99990438       0.24799503       0.75226157 </v>
    <v>       0.24960708       0.24960708       0.49956317 </v>
    <v>       0.24799503       0.99990438       0.75226157 </v>
    <v>       0.37273843       0.12509563       0.87700494 </v>
    <v>       0.12486592       0.12486592       0.62536532 </v>
    <v>       0.12509563       0.37273843       0.87700494 </v>
    <v>       0.37470055       0.37470055       0.62510332 </v>
    <v>       0.49933037      -0.00002849       0.49933037 </v>
    <v>       0.49942257       0.24966935       0.75093825 </v>
    <v>       0.75093825       0.24966935       0.49942257 </v>
    <v>       0.75262471       0.00011192       0.75262471 </v>
    <v>       0.88204261       0.12030189       0.88204261 </v>
    <v>       0.62566964       0.12502848       0.62566964 </v>
    <v>       0.62557745       0.37406173       0.87533065 </v>
    <v>       0.87533065       0.37406173       0.62557745 </v>
    <v>      -0.00002849       0.49933037       0.49933037 </v>
    <v>       0.00011192       0.75262471       0.75262471 </v>
    <v>       0.24966935       0.75093825       0.49942257 </v>
    <v>       0.24966935       0.49942257       0.75093825 </v>
    <v>       0.37406173       0.62557745       0.87533065 </v>
    <v>       0.12502848       0.62566964       0.62566964 </v>
    <v>       0.12030189       0.88204261       0.88204261 </v>
    <v>       0.37406173       0.87533065       0.62557745 </v>
    <v>       0.49997858       0.49997858       0.49997858 </v>
    <v>       0.49989667       0.75029944       0.75029944 </v>
    <v>       0.75029944       0.75029944       0.49989667 </v>
    <v>       0.75029944       0.49989667       0.75029944 </v>
    <v>       0.87539290       0.62543682       0.87539290 </v>
    <v>       0.62502142       0.62502142       0.62502142 </v>
    <v>       0.62543682       0.87539290       0.87539290 </v>
    <v>       0.87539290       0.87539290       0.62543682 </v>
   </varray>
  </structure>
  <varray name="forces" >
   <v>       0.00000000      -0.00000000      -0.00000000 </v>
   <v>      -0.20868558      -0.45011000      -0.45069120 </v>
   <v>      -0.44983939      -0.45042058      -0.20984798 </v>
   <v>      -0.44983939      -0.20926678      -0.45069120 </v>
   <v>      -0.07422044       0.12007944      -0.07416135 </v>
   <v>       0.12017508      -0.07406571      -0.07416135 </v>
   <v>      -0.07422044      -0.07431607       0.11998381 </v>
   <v>      -0.00558016      -0.01313730      -0.01315427 </v>
   <v>       0.01181358      -0.00112645      -0.00112790 </v>
   <v>      -0.02384113       0.02196397      -0.05542648 </v>
   <v>      -0.02384113      -0.05545472       0.02189249 </v>
   <v>      -0.02199477       0.05539568       0.02388438 </v>
   <v>       0.00558016       0.01313730       0.01315427 </v>
   <v>       0.01366236       0.00324002       0.00324420 </v>
   <v>      -0.02199477       0.02381290       0.05542648 </v>
   <v>      -0.01313006      -0.00559712      -0.01315427 </v>
   <v>      -0.05542392      -0.02391261       0.02189249 </v>
   <v>       0.02199477      -0.02381290      -0.05542648 </v>
   <v>      -0.00114168       0.01181212      -0.00112790 </v>
   <v>       0.00322239       0.01366655       0.00324420 </v>
   <v>       0.01313006       0.00559712       0.01315427 </v>
   <v>       0.05542392      -0.02192329       0.02388438 </v>
   <v>       0.02384113      -0.02196397       0.05542648 </v>
   <v>      -0.01274695      -0.01276356      -0.09231039 </v>
   <v>       0.00040902      -0.01268733      -0.01089307 </v>
   <v>       0.07422044       0.07431607      -0.11998381 </v>
   <v>      -0.01268782       0.00039264      -0.01089307 </v>
   <v>       0.01087718      -0.00039497       0.01270137 </v>
   <v>       0.01274695       0.01276356       0.09231039 </v>
   <v>      -0.00040902       0.01087669       0.01270137 </v>
   <v>       0.44983939       0.45042058       0.20984798 </v>
   <v>      -0.01313006      -0.01314703      -0.00561409 </v>
   <v>      -0.05542392       0.02192329      -0.02388438 </v>
   <v>      -0.00114168      -0.00114313       0.01181067 </v>
   <v>       0.02199477      -0.05539568      -0.02388438 </v>
   <v>       0.02384113       0.05545472      -0.02189249 </v>
   <v>       0.01313006       0.01314703       0.00561409 </v>
   <v>       0.05542392       0.02391261      -0.02189249 </v>
   <v>       0.00322239       0.00322657       0.01367073 </v>
   <v>      -0.01274695      -0.09229378      -0.01288260 </v>
   <v>       0.00040902      -0.01087669      -0.01270137 </v>
   <v>      -0.01268782      -0.01089356       0.00037859 </v>
   <v>       0.07422044      -0.12007944       0.07416135 </v>
   <v>       0.44983939       0.20926678       0.45069120 </v>
   <v>       0.01274695       0.09229378       0.01288260 </v>
   <v>      -0.00040902       0.01268733       0.01089307 </v>
   <v>       0.01087718       0.01270186      -0.00037859 </v>
   <v>      -0.09227716      -0.01286599      -0.01288260 </v>
   <v>      -0.12017508       0.07406571       0.07416135 </v>
   <v>      -0.01087718      -0.01270186       0.00037859 </v>
   <v>      -0.01087718       0.00039497      -0.01270137 </v>
   <v>       0.01268782      -0.00039264       0.01089307 </v>
   <v>       0.09227716       0.01286599       0.01288260 </v>
   <v>       0.20868558       0.45011000       0.45069120 </v>
   <v>       0.01268782       0.01089356      -0.00037859 </v>
   <v>      -0.01193866      -0.01195410      -0.01196954 </v>
   <v>      -0.01366236      -0.00324002      -0.00324420 </v>
   <v>      -0.00322239      -0.00322657      -0.01367073 </v>
   <v>      -0.00322239      -0.01366655      -0.00324420 </v>
   <v>       0.00114168      -0.01181212       0.00112790 </v>
   <v>       0.01193866       0.01195410       0.01196954 </v>
   <v>      -0.01181358       0.00112645       0.00112790 </v>
   <v>       0.00114168       0.00114313      -0  <energy>
   <i name="e_fr_energy">   -338.45931122 </i>
   <i name="e_wo_entrp">   -338.45880971 </i>
   <i name="e_0_energy">     -0.00100302 </i>
  </energy>
  <time name="totalsc">  868.87  870.93</time>
 </calculation>
65</time>
 </calculation>
e_fr_energy">    <i name="e_fr_ener   <i name="e_wo_entrp">     <i name="e_wo_ent   <i name="e_0_energy">     <i name="e_0_ener  </energy>
  <time name="totalsc">  8  <time name="totalsc">  868.92  871.00</time>
 </calculation>
i>
  </energy>
  <time name="totalsc">  8   <time name="dav">  128.   <time name="dav   <time name="total">  13   <time name="total">  130.57  130.88</time>
   <energy>
    <   <time name="total">  13   <time name="total">  131.55  131.86</time>
   <energy>
    <i name="alphaZ">     99.83771427 </i>
    <i name="ewald">  -7140.84795677 </i>
    <i name="hartreedc">   -481.83364095 </i>
    <i name="XCdc">   -585.39197013 </i>
    <i name="pawpsdc">   2328.53414439 </i>
    <i name="pawaedc">  -1214.66164454 </i>
    <i name="eentropy">     -0.00102919 </i>
    <i name="bandstr">    147.54763416 </i>
    <i name="atom">   6508.33789254 </i>
    <i name="e_fr_energy">   -338.47885622 </i>
    <i name="e_   <time name="dav">  143.   <time name="dav">  145.31  145.66</time>
   <time name="total">  146.94  147.29</time>
   <energy>
    <i name="e_fr_energy">   -3   <time name="total">  146.86  147.20</time>
   <energy>
    <i name="e_fr_energy">   -338.47903611 </i>
    <i name="e_   <time name="dav">  138.   <time name="dav">  141.08  141.41</time>
   <time name="total">  142.84  143.18</time>
   <energy>
    <i name="e_fr_energy">   -338.24054813 </i>
    <i name="e_wo_entrp">   -338.24005805 </i>
    <i name="e_0_energy">   -338.24030309 </i>
   </energ   <time name="dav">  140.   <time name="dav">  139.40  139.73</time>
   <time name="total">  141.22  141.56</time>   <time name="dav">  142.55  142.89</time>
   <time name="total">  144.41  144.75</time>
   <energy>
    <i name="e_fr_energy">   -338.47877993 </i>
    <i name="e_   <time name="dav">   92.   <time name="dav">  128.95  129.26</time>
   <time name="total">  129.16  129.47</time>
   <energy>
    <   <time name="total">  134.35  134.67</time>
   <energy>
    <i name="e_fr_energy">   -338.10749730 </i>
    <i name="e_wo_entrp">   -338.10722649 </i>
    <i name="e_0_energy">   -338.10736190 </i>
   </energy>
  </scstep>
  <scstep>
   <time name="dav">   69.14   69.30</time>
   <time name="total">   69.31   69.48</time>
   <energy>
    <i name="alphaZ">    100.14426229 </i>
    <i name="ewald">  -7156.18650899 </i>
    <i name="hartreedc">   -473.90148522 </i>
    <i name="XCdc">   -585.32669954 </i>
    <i name="paw  <structure>
   <crystal>  <structure>
   <crystal>
    <varray name="basis" >
     <v>      10.87845850       0.00000000       0.00000000 </v>
     <v>      -0.03090266      10.87843853       0.00000000 </v>
     <v>      -0.03090268      -0.03092261      10.87841859 </v>
    </varray>
    <i name="volume">   1287.35904065 </i>
    <varray name="rec_basis" >
     <  <structure>
   <crystal>
    <varray name="basis" >
     <v>      10.87496730       0.00000000       0.00000000 </v>
     <v>      -0.04020740      10.87493344       0.00000000 </v>
     <v>      -0.04020745      -0.04024122      10.87489963 </v>
    </varray>
    <i name="volume">   1286.11506310 </i>
    <varray name="rec_basis" >
     <v>       0.09195430       0.00033998       0.00034124 </v>
     <v>       0.00000000       0.09195459       0.00034027 </v>
     <v>       0.00000000       0.00000000       0.09195487 </v>
    </varray>
   </crystal>
   <varray name="positions" >
    <v>       0.06249998       0.06249998       0.06249998 </v>
    <v>       0.00430741       0.24211834       0.24211834 </v>
    <v>       0.24211834       0.24211834       0.00430741 </v>
    <v>       0.24211834       0.00430741       0.24211834 </v>
    <v>       0.37223722       0.12511143       0.37223722 </v>
    <v>       0.12511143       0.37223722       0.37223722 </v>
    <v>       0.37223722       0.37223722       0.12511143 </v>
    <v>       0.49962423       0.00010960       0.00010960 </v>
    <v>       0.49958516       0.24960498       0.24960498 </v>
    <v>       0.75221711       0.24803579       0.99980119 </v>
    <v>       0.75221711       0.99980119       0.24803579 </v>
    <v>       0.87696418       0.12519882       0.37278289 </v>
    <v>       0.62537577       0.12489041       0.12489041 </v>
    <v>       0.62512877       0.37470659       0.37470659 </v>
    <v>       0.87696418       0.37278289       0.12519882 </v>
    <v>       0.00010960       0.49962423       0.00010960 </v>
    <v>       0.99980119       0.75221711       0.24803579 </v>
    <v>       0.24803579       0.75221711       0.99980119 </v>
    <v>       0.24960498       0.49958516       0.24960498 </v>
    <v>       0.37470659       0.62512877       0.37470659 </v>
    <v>       0.12489041       0.62537577       0.12489041 </v>
    <v>       0.12519882       0.87696418       0.37278289 </v>
    <v>       0.37278289       0.87696418       0.12519882 </v>
    <v>       0.49930639       0.49930639      -0.00020035 </v>
    <v>       0.49942327       0.75091460       0.24964907 </v>
    <v>       0.75276277       0.75276277      -0.00011145 </v>
    <v>       0.75091460       0.49942327       0.24964907 </v>
    <v>       0.87535093       0.62557675       0.37408538 </v>
    <v>       0.62569362       0.62569362       0.12520033 </v>
    <v>       0.62557675       0.87535093       0.37408538 </v>
    <v>       0.88288165       0.88288165       0.12069256 </v>
    <v>       0.00010960       0.00010960       0.49962423 </v>
    <v>       0.99980119       0.24803579       0.75221711 </v>
    <v>       0.24960498       0.24960498       0.49958516 </v>
    <v>       0.24803579       0.99980119       0.75221711 </v>
    <v>       0.37278289       0.12519882       0.87696418 </v>
    <v>       0.12489041       0.12489041       0.62537577 </v>
    <v>       0.12519882       0.37278289       0.87696418 </v>
    <v>       0.37470659       0.37470659       0.62512877 </v>
    <v>       0.49930639      -0.00020035       0.49930639 </v>
    <v>       0.49942327       0.24964907       0.75091460 </v>
    <v>       0.75091460       0.24964907       0.49942327 </v>
    <v>       0.75276277      -0.00011145       0.75276277 </v>
    <v>       0.88288165       0.12069256       0.88288165 </v>
    <v>       0.62569362       0.12520033       0.62569362 </v>
    <v>       0.62557675       0.37408538       0.87535093 </v>
    <v>       0.87535093       0.37408538       0.62557675 </v>
    <v>      -0.00020035       0.49930639       0.49930639 </v>
    <v>      -0.00011145       0.75276277       0.75276277 </v>
    <v>       0.24964907       0.75091460       0.49942327 </v>
    <v>       0.24964907       0.49942327       0.75091460 </v>
    <v>       0.37408538       0.62557675       0.87535093 </v>
    <v>       0.12520033       0.62569362       0.62569362 </v>
    <v>       0.12069256       0.88288165       0.88288165 </v>
    <v>       0.37408538       0.87535093       0.62557675 </v>
    <v>       0.49995630       0.49995630       0.49995630 </v>
    <v>       0.49987122       0.75029340       0.75029340 </v>
    <v>       0.75029340       0.75029340       0.49987122 </v>
    <v>       0.75029340       0.49987122       0.75029340 </v>
    <v>       0.87539500       0.62541483       0.87539500 </v>
    <v>       0.62504371       0.62504371       0.62504371 </v>
    <v>       0.62541483       0.87539500       0.87539500 </v>
    <v>       0.87539500       0.87539500       0.62541483 </v>
   </varray>
  </structure>
  <varray name="forces" >
   <v>       0.00000000      -0.00000000       0.00000000 </v>
   <v>      -0.16876929      -0.40283369      -0.40432860 </v>
   <v>      -0.40220117      -0.40369429      -0.17175804 </v>
   <v>      -0.40220117      -0.17026241      -0.40432860 </v>
   <v>      -0.08837578       0.07013942      -0.08844412 </v>
   <v>       0.07046637      -0.08811712      -0.08844412 </v>
   <v>      -0.08837578      -0.08870273       0.06981193 </v>
   <v>      -0.03219540      -0.02658601      -0.02668467 </v>
   <v>      -0.00789636      -0.02060740      -0.02068387 </v>
   <v>      -0.04567996       0.01459526      -0.05223246 </v>
   <v>      -0.04567996      -0.05228592       0.01440194 </v>
   <v>      -0.01476455       0.05206308       0.04581954 </v>
   <v>       0.03219540       0.02658601       0.02668467 </v>
   <v>       0.03297956       0.02530739       0.02540130 </v>
   <v>      -0.01476455       0.04562641       0.05223246 </v>
   <v>      -0.02646641      -0.03229387      -0.02668467 </v>
   <v>      -0.05211663      -0.04587298       0.01440194 </v>
   <v>       0.01476455      -0.04562641      -0.05223246 </v>
   <v>      -0.02057776      -0.00797274      -0.02068387 </v>
   <v>       0.02518492       0.03307329       0.02540130 </v>
   <v>       0.02646641       0.03229387       0.02668467 </v>
   <v>       0.05211663      -0.01457153       0.04581954 </v>
   <v>       0.04567996      -0.01459526       0.05223246 </v>
   <v>      -0.03887275      -0.03901768      -0.07490694 </v>
   <v>      -0.02116561      -0.03019631      -0.01742515 </v>
   <v>       0.08837578       0.08870273      -0.06981193 </v>
   <v>      -0.03011755      -0.02127737      -0.01742515 </v>
   <v>       0.01723447       0.02122987       0.03026070 </v>
   <v>       0.03887275       0.03901768       0.07490694 </v>
   <v>       0.02116561       0.01731323       0.03026070 </v>
   <v>       0.40220117       0.40369429       0.17175804 </v>
   <v>      -0.02646641      -0.02656489      -0.03239252 </v>
   <v>      -0.05211663       0.01457153      -0.04581954 </v>
   <v>      -0.02057776      -0.02065415      -0.00804926 </v>
   <v>       0.01476455      -0.05206308      -0.04581954 </v>
   <v>       0.04567996       0.05228592      -0.01440194 </v>
   <v>       0.02646641       0.02656489       0.03239252 </v>
   <v>       0.05211663       0.04587298      -0.01440194 </v>
   <v>       0.02518492       0.02527865       0.03316718 </v>
   <v>      -0.03887275      -0.07476177      -0.03929474 </v>
   <v>      -0.02116561      -0.01731323      -0.03026070 </v>
   <v>      -0.03011755      -0.01734623      -0.02134178 </v>
   <v>       0.08837578      -0.07013942       0.08844412 </v>
   <v>       0.40220117       0.17026241       0.40432860 </v>
   <v>       0.03887275       0.07476177       0.03929474 </v>
   <v>       0.02116561       0.03019631       0.01742515 </v>
   <v>       0.01723447       0.03018182       0.02134178 </v>
   <v>      -0.07461684      -0.03914946      -0.03929474 </v>
   <v>      -0.07046637       0.08811712       0.08844412 </v>
   <v>      -0.01723447      -0.03018182      -0.02134178 </v>
   <v>      -0.01723447      -0.02122987      -0.03026070 </v>
   <v>       0.03011755       0.02127737       0.01742515 </v>
   <v>       0.07461684       0.03914946       0.03929474 </v>
   <v>       0.16876929       0.40283369       0.40432860 </v>
   <v>       0.03011755       0.01734623       0.02134178 </v>
   <v>      -0.03007444      -0.03018627      -0.03029829 </v>
   <v>      -0.03297956      -0.02530739      -0.02540130 </v>
   <v>      -0.02518492      -0.02527865      -0.03316718 </v>
   <v>      -0.02518492      -0.03307329      -0.02540130 </v>
   <v>       0.02057776       0.00797274       0.02068387 </v>
   <v>       0.03007444       0.03018627       0.03029829 <  <energy>
   <i name="e_fr_energy">   -338.47877967 </i>
   <i name="e_wo_entrp">   -338.47826512 </i>
   <i name="e_0_energy">     -0.00102910 </i>
  </energy>
  <time name="totalsc">  963.83  966.12</time>
 </calculation>
  <time name="totalsc">  963.52  965.81</time>
 </ca  <time name="totalsc">  963.73  966.02</time>
 </calculation>
 0.27932981 </v>
  </varray>
  <energy>
   <i name="e_fr_energy">   -338.10749838 </i>
   <i name="e_wo_entrp">   -338.10736298 </i>
   <i name="e_0_energy">     -0.00027081 </i>
  </energy>
  <time name="totalsc">  9   <time name="dav">  127.25  127.55</time>
   <time name="total">  129.01  129.32</time>
   <en   <time name="total">  12   <time name="total">  130.02  130.33</time>
   <energy>
    <i name="alphaZ">     99.72186325 </i>
    <i name="ewald">  -7138.29863172 </i>
    <i name="hartreedc">   -481.22975842 </i>
    <i name="XCdc">   -585.55823742 </i>
    <i name="pawpsdc">   2329.05907071 </i>
    <i name="pawaedc">  -1215.20170403 </i>
    <i name="eentropy">     -0.00096987 </i>
    <i name="bandstr">    144.67235090 </i>
    <i name="atom">   6508.33789254 </i>
    <i name="e_fr_energy">   -338.49812406 </i>
    <i name="e_wo_entrp">   -338.49715419 </i>
    <   <time name="dav">  144.73  145.07</time>
   <time name="total">  146.38  146.72</time>
   <en   <time   <time name="dav   <time name="total">  14   <time name="total">  146.69  147.04</time>
   <energy>
    <i name="e_fr_energy">   -338.17834332 </i>
    <i name="e_wo_entrp">    <time name="dav">  142.23  142.56</time>
   <time name="total">  143.83  144.17</time>
   <energy>
     <time name="dav">  142.19  142.54</time>
   <time name="total">  144.03  144.38</time>
   <energy>
    <i name="e_fr_energy">   -338.17591859 </i>
    <i name="e_wo_entrp">    <time name="dav">  140.43  140.76</time>
   <time name="total">  142.10  142.44</time>
   <energy>
    <i name="e_fr_en   <time name="total">  14   <time name="total">  140.98  141.32</time>
   <energy>
    <i name="e_fr_energy">   -338.17598159 </i>
    <i name="e_wo_entrp">    <time name="dav">  131.59  131.90</time>
   <time name="total">  133.10  133.42</time>
   <energy>
    <i name="e_fr_energy">   -338.29710943 </i   <time name="total">  133.43  133.75</time>
   <energy>
    <i name="e_fr_energy">   -338.17595509 </i>
    <i name="e_wo_entrp">    <time name="dav">   87.48   87.69</time>
   <time name="total">   87.67   87.88</time>
   <energy>
     <time name="dav">   92.77   92.99</time>
   <time name="total">   92.97   93.19</time>
   <energy>
    <i name="alphaZ">     99.89289658 </i>
    <i name="ewald">  -7151.20173019 </i>
    <i name="hartreedc">   -474.15138286 </i>
    <i name="XCdc">   -585.69326557 </i>
    <i name="pawpsdc">   2325.71149206 </i>
    <i na  <structure>
   <crystal>  <structure>
   <crystal>
    <varray name="basis" >
     <v>      10.89027419       0.00000000       0.00000000 </v>
     <v>      -0.01652944      10.89026641       0.00000000 </v>
     <v>      -0.0  <structure>
   <crystal>
    <varray name="basis" >
     <v>      10.88555611       0.00000000       0  <structure>
   <crystal>
    <varray name="basis" >
     <v>      10.88417428       0.00000000       0.00000000 </v>
     <v>      -0.06524301      10.88404749       0.00000000 </v>
     <v>      -0.06524324      -0.06536938      10.88392085 </v>
    </varray>
    <i name="volume">   1289.35138162 </i>
    <varray name="rec_basis" >
     <v>       0.09187651       0.00055074       0.00055406 </v>
     <v>       0.00000000       0.09187759       0.00055182 </v>
     <v>       0.00000000       0.00000000       0.09187865 </v>
    </varray>
   </crystal>
   <varray name="positions" >
    <v>       0.06249997       0.06249997       0.06249997 </v>
    <v>       0.00380082       0.24092579       0.24092579 </v>
    <v>       0.24092579       0.24092579       0.00380082 </v>
    <v>       0.24092579       0.00380082       0.24092579 </v>
    <v>       0.37197635       0.12531734       0.37197635 </v>
    <v>       0.12531734       0.37197635       0.37197635 </v>
    <v>       0.37197635       0.37197635       0.12531734 </v>
    <v>       0.49952869       0.00003089       0.00003089 </v>
    <v>       0.49956142       0.24954397       0.24954397 </v>
    <v>       0.75208197       0.24807826       0.99964713 </v>
    <v>       0.75208197       0.99964713       0.24807826 </v>
    <v>       0.87692171       0.12535288       0.37291804 </v>
    <v>       0.62547131       0.12496911       0.12496911 </v>
    <v>       0.62522659       0.37478151       0.37478151 </v>
    <v>       0.87692171       0.37291804       0.12535288 </v>
    <v>       0.00003089       0.49952869       0.00003089 </v>
    <v>       0.99964713       0.75208197       0.24807826 </v>
    <v>       0.24807826       0.75208197       0.99964713 </v>
    <v>       0.24954397       0.49956142       0.24954397 </v>
    <v>       0.37478151       0.62522659       0.37478151 </v>
    <v>       0.12496911       0.62547131       0.12496911 </v>
    <v>       0.12535288       0.87692171       0.37291804 </v>
    <v>       0.37291804       0.87692171       0.12535288 </v>
    <v>       0.49919049       0.49919049      -0.00042128 </v>
    <v>       0.49936033       0.75082535       0.24959767 </v>
    <v>       0.75302363       0.75302363      -0.00031736 </v>
    <v>       0.75082535       0.49936033       0.24959767 </v>
    <v>       0.87540232       0.62563969       0.37417463 </v>
    <v>       0.62580952       0.62580952       0.12542127 </v>
    <v>       0.62563969       0.87540232       0.37417463 </v>
    <v>       0.88407420       0.88407420       0.12119915 </v>
    <v>       0.00003089       0.00003089       0.49952869 </v>
    <v>       0.99964713       0.24807826       0.75208197 </v>
    <v>       0.24954397       0.24954397       0.49956142 </v>
    <v>       0.24807826       0.99964713       0.75208197 </v>
    <v>       0.37291804       0.12535288       0.87692171 </v>
    <v>       0.12496911       0.12496911       0.62547131 </v>
    <v>       0.12535288       0.37291804       0.87692171 </v>
    <v>       0.37478151       0.37478151       0.62522659 </v>
    <v>       0.49919049      -0.00042128       0.49919049 </v>
    <v>       0.49936033       0.24959767       0.75082535 </v>
    <v>       0.75082535       0.24959767       0.49936033 </v>
    <v>       0.75302363      -0.00031736       0.75302363 </v>
    <v>       0.88407420       0.12119915       0.88407420 </v>
    <v>       0.62580952       0.12542127       0.62580952 </v>
    <v>       0.62563969       0.37417463       0.87540232 </v>
    <v>       0.87540232       0.37417463       0.62563969 </v>
    <v>      -0.00042128       0.49919049       0.49919049 </v>
    <v>      -0.00031736       0.75302363       0.75302363 </v>
    <v>       0.24959767       0.75082535       0.49936033 </v>
    <v>       0.24959767       0.49936033       0.75082535 </v>
    <v>       0.37417463       0.62563969       0.87540232 </v>
    <v>       0.12542127       0.62580952       0.62580952 </v>
    <v>       0.12119915       0.88407420       0.88407420 </v>
    <v>       0.37417463       0.87540232       0.62563969 </v>
    <v>       0.49986693       0.49986693       0.49986693 </v>
    <v>       0.49977340       0.75021848       0.75021848 </v>
    <v>       0.75021848       0.75021848       0.49977340 </v>
    <v>       0.75021848       0.49977340       0.75021848 </v>
    <v>       0.87545601       0.62543857       0.87545601 </v>
    <v>       0.62513307       0.62513307       0.62513307 </v>
    <v>       0.62543857       0.87545601       0.87545601 </v>
    <v>       0.87545601       0.87545601       0.62543857 </v>
   </varray>
  </structure>
  <varray name="forces" >
   <v>       0.00000000       0.00000000      -0.00000000 </v>
   <v>      -0.11893316      -0.31693566      -0.31884696 </v>
   <v>      -0.31620724      -0.31811341      -0.12275293 </v>
   <v>      -0.31620723      -0.12083934      -0.31884696 </v>
   <v>      -0.10938825       0.00545235      -0.11001646 </v>
   <v>       0.00611062      -0.10935698      -0.11001646 </v>
   <v>      -0.10938826      -0.11004652       0.00479153 </v>
   <v>      -0.03672676      -0.02261741      -0.02275381 </v>
   <v>      -0.01822563      -0.02464799      -0.02479663 </v>
   <v>      -0.04382495       0.01949095      -0.02931809 </v>
   <v>      -0.04382495      -0.02943444       0.01931464 </v>
   <v>      -0.01975390       0.02905486       0.04388389 </v>
   <v>       0.03672676       0.02261741       0.02275381 </v>
   <v>       0.02929611       0.02771462       0.02788176 </v>
   <v>      -0.01975390       0.04370832       0.02931809 </v>
   <v>      -0.02239615      -0.03686246      -0.02275381 </v>
   <v>      -0.02917150      -0.04400041       0.01931464 </v>
   <v>       0.01975390      -0.04370832      -0.02931809 </v>
   <v>      -0.02453753      -0.01837377      -0.02479663 </v>
   <v>       0.02753766       0.02946257       0.02788176 </v>
   <v>       0.02239615       0.03686246       0.02275381 </v>
   <v>       0.02917149      -0.01957843       0.04388389 </v>
   <v>       0.04382495      -0.01949095       0.02931809 </v>
   <v>      -0.04915358      -0.04945030      -0.03582859 </v>
   <v>      -0.01986245      -0.03141768      -0.00555174 </v>
   <v>       0.10938826       0.11004652      -0.00479153 </v>
   <v>      -0.03129772      -0.02005068      -0.00555174 </v>
   <v>       0.00524295       0.01989513       0.03145066 </v>
   <v>       0.04915358       0.04945030       0.03582859 </v>
   <v>       0.01986245       0.00536291       0.03145066 </v>
   <v>       0.31620724       0.31811341       0.12275293 </v>
   <v>      -0.02239615      -0.02253186      -0.03699869 </v>
   <v>      -0.02917149       0.01957843      -0.04388389 </v>
   <v>      -0.02453753      -0.02468567      -0.01852248 </v>
   <v>       0.01975390      -0.02905486      -0.04388389 </v>
   <v>       0.04382495       0.02943444      -0.01931464 </v>
   <v>       0.02239615       0.02253186       0.03699869 </v>
   <v>       0.02917150       0.04400041      -0.01931464 </v>
   <v>       0.02753766       0.02770413       0.02962969 </v>
   <v>      -0.04915358      -0.03553072      -0.04966491 </v>
   <v>      -0.01986245      -0.00536291      -0.03145066 </v>
   <v>      -0.03129772      -0.00543118      -0.02008379 </v>
   <v>       0.10938825      -0.00545235       0.11001646 </v>
   <v>       0.31620723       0.12083934       0.31884696 </v>
   <v>       0.04915358       0.03553072       0.04966491 </v>
   <v>       0.01986245       0.03141768       0.00555174 </v>
   <v>       0.00524295       0.03133040       0.02008379 </v>
   <v>      -0.03523400      -0.04936720      -0.04966491 </v>
   <v>      -0.00611062       0.10935698       0.11001646 </v>
   <v>      -0.00524295      -0.03133040      -0.02008379 </v>
   <v>      -0.00524295      -0.01989513      -0.03145066 </v>
   <v>       0.03129772       0.02005068       0.00555174 </v>
   <v>       0.03523400       0.04936720       0.04966491 </v>
   <v>       0.11893316       0.31693566       0.31884696 </v>
   <v>       0.03129772       0.00543118       0.02008379 </v>
   <v>      -0.02696821      -0.02713119      -0.02729481 </v>
   <v>      -0.02929611      -0.02771462      -0.02788176 </v>
   <v>      -0.02753766      -0.02770413      -0.02962969 </v>
   <v>      -0.02753766      -0.02946257      -0.02788176 </v>
   <v>       0.02453753       0.01837377       0.02479663 </v>
   <v>       0.02696821       0.02713119       0.02729481 </v>
   <v>       0.01822563       0.0  <energy>
   <i name="e_fr_energy">   -338.49874925 </i>
   <i name="e_wo_entrp">   -338.49826015 </i>
   <i name="e_0_energy">     -0.00097820 </i>
  </energy>
  <time name="totalsc">  9  <time name="totalsc">  981.67  984.00</time>
 </calculation>
e_f  <energy>
   <i name="e_fr_energy">   -338.29710482 </i>
   <i name="e_wo_entrp">   -338.29696939 </i>
   <i name="e_0_energy">     -0.  <time name="totalsc">  9  <time name="totalsc">  981.88  984.22</time>
 </calculation>
i>
  </energy>
  <time name="totalsc">  9   <time name="dav">  126.06  126.36</time>
   <time   <time name="   <time name="dav">  128.36    <time name="   <time name="total">  130.08  130.39</time>
   <energy>
    <i name="alphaZ">     99.81334827 </i>
    <i name="ewald">  -7140.64339017 </i>
    <i name="hartreedc">   -481.86808957 </i>
    <i name="XCdc">   -585.41390816 </i>
    <i name="pawpsdc">   2327.88046534 </i>
    <i name="pawaedc">  -1213.99298905 </i>
    <i name="eentropy">     -0.00084224 </i>
    <i name="bandstr">    147.37370678 </i>
    <i name="atom">   6508.33789254 </i>
    <i name="e_fr_energy">   -338.51380626 </i>
    <i name="e_wo_entrp">   -338.51296402 </i>
    <i name="e_0   <time name="dav">  144.30  144.65</time>
   <time name="total">  146.00  146.34</time>
   <en   <time name="   <time name="total">  144.71  145.06</time>
   <energy>
    <i name="e_fr_energy">   -338.51517450 </i>
    <i name="e_wo_entrp">   -338.51431471 </i>
    <i name="e_0   <time name="dav">  143.54  143.87</time>
   <time name="total">  145.17  145.51</time>
   <energy>
    <i name="e_fr_energy">   -338.35022619 </i>
    <i name="e_wo_entrp">   -338.34995524 </i>
    <i name="e_0_energy">   -338.35009072 </i>
   </energy>
  </scstep>
  <scstep>
   <time name="dav">  141.61  141.94</time>
   <time name="total">  143.31  143.65</time>
   <energy>
    <i name="e_fr_energy">   -338.35020382 </i>
    <i name="e_wo_entrp">   -338.34993286 </i>
    <i name="e_0_energy">   -338.35006834 </i>
   </energy>
  </scstep>
  <scstep>
   <time name="dav">  132.22  132.53</time>
   <time name="total">  132.42  132.73</time>
   <energy>
    <i name="alphaZ">    100.04867937 </i>
    <i name="ewald">  -7153.41004110 </i>
    <i name="hartreedc">   -474.92434483 </i>
    <i name="XCdc">   -585.38251831 </i>
    <i name="pawpsdc">   2327.81314084 </i>
    <i name="pawaedc">  -1213.92072743 </i>
    <i name="eentropy">     -0.00027096 </i>
    <i name="bandstr">    153.08798790 </i>
    <i name="atom">   6508.33789254 </i>
    <i name="e_fr_energy">   -338.35020197 </i>
    <i name="e_wo_entrp">   -338.34993101 </i>
    <i name="e_0_energy">   -338.35006649 </i>
   </energy>
  </scstep>
  <structure>
   <crystal>
    <varray name="basis" >
     <v>      10.87846671       0.00000000       0.00000000 </v>
     <v>      -0.04936062      10.87839551       0.00000000 </v>
     <v>      -0.04936072      -0.04943170      10.87832437 </v>
    </varray>
    <i name="volume">   1287.34377128 </i>
    <varray name="rec_basis" >
     <v>       0.09192472       0.00041711       0.00041901 </v>
     <v>       0.00000000       0.09192532       0.00041771 </v>
     <v>       0.00000000       0.00000000       0.09192592 </v>
    </varray>
   </crystal>
   <varray name="positions" >
    <v>       0.04430668       0.04430668       0.04430668 </v>
    <v>       0.00444672       0.24043132       0.24043132 </v>
    <v>       0.24043132       0.24043132       0.00444672 </v>
    <v>       0.24043132       0.00444672       0.24043132 </v>
    <v>       0.37148597       0.12526861       0.37148597 </v>
    <v>       0.12526861       0.37148597       0.37148597 </v>
    <v>       0.37148597       0.37148597       0.12526861 </v>
    <v>       0.49939930       0.00003818       0.00003818 </v>
    <v>       0.49945897       0.24944844       0.24944844 </v>
    <v>       0.75151260       0.24857341      -0.00056765 </v>
    <v>       0.75151260      -0.00056765       0.24857341 </v>
    <v>       0.87731599       0.12530979       0.37258071 </v>
    <v>       0.62557137       0.12509627       0.12509627 </v>
    <v>       0.62532973       0.37479442       0.37479442 </v>
    <v>       0.87731599       0.37258071       0.12530979 </v>
    <v>       0.00003818       0.49939930       0.00003818 </v>
    <v>      -0.00056765       0.75151260       0.24857341 </v>
    <v>       0.24857341       0.75151260      -0.00056765 </v>
    <v>       0.24944844       0.49945897       0.24944844 </v>
    <v>       0.37479442       0.62532973       0.37479442 </v>
    <v>       0.12509627       0.62557137       0.12509627 </v>
    <v>       0.12530979       0.87731599       0.37258071 </v>
    <v>       0.37258071       0.87731599       0.12530979 </v>
    <v>       0.49899197       0.49899197      -0.00060872 </v>
    <v>       0.49913134       0.75082018       0.24980385 </v>
    <v>       0.75327645       0.75327645      -0.00023555 </v>
    <v>       0.75082018       0.49913134       0.24980385 </v>
    <v>       0.87557869       0.62552524       0.37436605 </v>
    <v>       0.62593652       0.62593652       0.12538742 </v>
    <v>       0.62552524       0.87557869       0.37436605 </v>
    <v>       0.88531157       0.88531157       0.12217889 </v>
    <v>       0.00003818       0.00003818       0.49939930 </v>
    <v>      -0.00056765       0.24857341       0.75151260 </v>
    <v>       0.24944844       0.24944844       0.49945897 </v>
    <v>       0.24857341      -0.00056765       0.75151260 </v>
    <v>       0.37258071       0.12530979       0.87731599 </v>
    <v>       0.12509627       0.12509627       0.62557137 </v>
    <v>       0.12530979       0.37258071       0.87731599 </v>
    <v>       0.37479442       0.37479442       0.62532973 </v>
    <v>       0.49899197      -0.00060872       0.49899197 </v>
    <v>       0.49913134       0.24980385       0.75082018 </v>
    <v>       0.75082018       0.24980385       0.49913134 </v>
    <v>       0.75327645      -0.00023555       0.75327645 </v>
    <v>       0.88531157       0.12217889       0.88531157 </v>
    <v>       0.62593652       0.12538742       0.62593652 </v>
    <v>       0.62552524       0.37436605       0.87557869 </v>
    <v>       0.87557869       0.37436605       0.62552524 </v>
    <v>      -0.00060872       0.49899197       0.49899197 </v>
    <v>      -0.00023555       0.75327645       0.75327645 </v>
    <v>       0.24980385       0.75082018       0.49913134 </v>
    <v>       0.24980385       0.49913134       0.75082018 </v>
    <v>       0.37436605       0.62552524       0.87557869 </v>
    <v>       0.12538742       0.62593652       0.62593652 </v>
    <v>       0.12217889       0.88531157       0.88531157 </v>
    <v>       0.37436605       0.87557869       0.62552524 </v>
    <v>       0.49979216       0.49979216       0.49979216 </v>
    <v>       0.49970759       0.75004104       0.75004104 </v>
    <v>       0.75004104       0.75004104       0.49970759 </v>
    <v>       0.75004104       0.49970759       0.75004104 </v>
    <v>       0.87549904       0.62544044       0.87549904 </v>
    <v>       0.62522253       0.62522253       0.62522253 </v>
    <v>       0.62544044       0.87549904       0.87549904 </v>
    <v>       0.87549904       0.87549904       0.62544044 </v>
   </varray>
  </structure>
  <varray name="forces" >
   <v>      -0.35794167      -0.35957597      -0.36121499 </v>
   <v>      -0.04915399      -0.10713788      -0.10762624 </v>
   <v>      -0.10691182      -0.10739915      -0.05013005 </v>
   <v>      -0.10691182      -0.04964131      -0.10762624 </v>
   <v>      -0.08916302      -0.05028910      -0.08979935 </v>
   <v>      -0.04988256      -0.08939188      -0.08979935 </v>
   <v>      -0.08916302      -0.08956957      -0.05069683 </v>
   <v>       0.00718481       0.01113025       0.01118099 </v>
   <v>       0.00326436      -0.00058544      -0.00058811 </v>
   <v>       0.00144742       0.02930541       0.00057984 </v>
   <v>       0.00144742       0.00044666       0.02930785 </v>
   <v>      -0.04594123      -0.01826571       0.01101170 </v>
   <v>       0.00817301      -0.00837294      -0.00841111 </v>
   <v>      -0.01192224      -0.00602051      -0.00604795 </v>
   <v>      -0.04594123       0.01109454      -0.01821556 </v>
   <v>       0.01109734       0.00723542       0.01118099 </v>
   <v>       0.00043968       0.00144985       0.02930785 </v>
   <v>       0.02929842       0.00158039       0.00057984 </v>
   <v>      -0.00060023       0.00326168      -0.00058811 </v>
   <v>      -0.00596624      -0.01194957      -0.00604795 </v>
[...]
   <i name="efermi">      5.63646829 </i>
   <total>
    <array>
     <dimension dim="1">gridpoints</dimension>
     <dimension dim="2">spin</dimension>
     <field>energy</field>
     <field>total</field>
     <field>integrated</f  <dos>
   <i name="efermi">      5.66812279 </i>
   <total>
    <array>
     <dimension dim="1">gridpoints</dimension>
     <dimension dim="2">spin</dimension>
     <field>energy</field>
     <field>total</field>
     <field>integrated</field>
     <set>
      <set comment="spin 1">
       <r>    -6.9679     0.0000     0.0000 </r>
       <r>    -6.9129     0.0000     0.0000 </r>
       <r>    -6.8579     0.0000     0.0000 </r>
       <r>    -6.8029     0.0000     0.0000 </r>
       <r>    -6.7479     0.0000     0.0000 </r>
       <r>    -6.6929     0.0000     0.0000 </r>
       <r>    -6.6379     0.0000     0.0000 </r>
       <r>    -6.5829     0.0000     0.0000 </r>
       <r>    -6.5279     0.0000     0.0000 </r>
       <r>    -6.4729     0.0000     0.0000 </r>
       <r>    -6.4179     0.0000     0.0000 </r>
       <r>    -6.3629     0.0000     0.0000 </r>
       <r>    -6.3079     0.0000     0.0000 </r>
       <r>    -6.2529     0.0000     0.0000 </r>
       <r>    -6.1979     0.2912     0.0160 </r>
       <r>    -6.1428     1.9664     0.1242 </r>
       <r>    -6.0878     4.6178     0.3782 </r>
       <r>    -6.0328     2.6968     0.5265 </r>
       <r>    -5.9778     7.1735     0.9211 </r>
       <r>    -5.9228     6.8157     1.2960 </r>
       <r>    -5.8678     3.3111     1.4781 </r>
       <r>    -5.8128     8.7726     1.9607 </r>
       <r>    -5.7578     7.2008     2.3567 </r>
       <r>    -5.7028     9.0431     2.8542 </r>
       <r>    -5.6478     5.8340     3.1751 </r>
       <r>    -5.5928    14.8766     3.9934 </r>
       <r>    -5.5378     0.5580     4.0240 </r>
       <r>    -5.4828    11.1544     4.6376 </r>
       <r>    -5.4278    12.4305     5.3213 </r>
       <r>    -5.3728    11.2249     5.9387 </r>
       <r>    -5.3178    17.3239     6.8916 </r>
       <r>    -5.2628     6.4681     7.2474 </r>
       <r>    -5.2078     4.2841     7.4831 </r>
       <r>    -5.1528    12.2882     8.1590 </r>
       <r>    -5.0978    14.0879     8.9339 </r>
       <r>    -5.0428    17.3099     9.8860 </r>
       <r>    -4.9878    13.9166    10.6515 </r>
       <r>    -4.9327    17.6496    11.6223 </r>
       <r>    -4.8777     4.7653    11.8845 </r>
       <r>    -4.8227    14.7502    12.6958 </r>
       <r>    -4.7677    17.6479    13.6665 </r>
       <r>    -4.7127    17.1071    14.6075 </r>
       <r>    -4.6577    15.1930    15.4431 </r>
       <r>    -4.6027    10.7408    16.0339 </r>
       <r>    -4.5477    14.2708    16.8189 </r>
       <r>    -4.4927    27.3354    18.3225 </r>
       <r>    -4.4377    15.4589    19.1728 </r>
       <r>    -4.3827    24.3171    20.5104 </r>
       <r>    -4.3277     8.8250    20.9958 </r>
       <r>    -4.2727    17.1354    21.9383 </r>
       <r>    -4.2177    17.8439    22.9198 </r>
       <r>    -4.1627    16.4554    23.8249 </r>
       <r>    -4.1077    18.4027    24.8371 </r>
       <r>    -4.0527    38.8441    26.9738 </r>
       <r>    -3.9977    25.3289    28.3670 </r>
       <r>    -3.9427    21.9343    29.5735 </r>
       <r>    -3.8877    15.0829    30.4031 </r>
       <r>    -3.8327    18.5094    31.4212 </r>
       <r>    -3.7777    52.9451    34.3334 </r>
       <r>    -3.7227    19.7095    35.4176 </r>
       <r>    -3.6676    19.2368    36.4757 </r>
       <r>    -3.6126    17.2779    37.4260 </r>
       <r>    -3.5576    22.0015    38.6362 </r>
       <r>    -3.5026    20.2701    39.7512 </r>
       <r>    -3.4476    32.1586    41.5200 </r>
       <r>    -3.3926    21.0859    42.6799 </r>
       <r>    -3.3376    34.4139    44.5728 </r>
       <r>    -3.2826    22.3762    45.8036 </r>
       <r>    -3.2276    33.4993    47.6463 </r>
       <r>    -3.1726    12.4351    48.3303 </r>
       <r>    -3.1176    17.2558    49.2794 </r>
       <r>    -3.0626    20.8927    50.4286 </r>
       <r>    -3.0076     8.2622    50.8831 </r>
       <r>    -2.9526    16.2238    51.7755 </r>
       <r>    -2.8976     8.6456    52.2510 </r>
       <r>    -2.8426    21.7143    53.4454 </r>
       <r>    -2.7876    30.1061    55.1014 </r>
       <r>    -2.7326    23.4103    56.3891 </r>
       <r>    -2.6776    14.9843    57.2133 </r>
       <r>    -2.6226    15.9631    58.0913 </r>
       <r>    -2.5676    12.6773    58.7886 </r>
       <r>    -2.5126    10.0108    59.3392 </r>
       <r>    -2.4576    10.1482    59.8974 </r>
       <r>    -2.4025     6.3763    60.2482 </r>
       <r>    -2.3475    13.2100    60.9748 </r>
       <r>    -2.2925     6.8610    61.3522 </r>
       <r>    -2.2375     4.8549    61.6192 </r>
       <r>    -2.1825    15.5790    62.4761 </r>
       <r>    -2.1275     1.4725    62.5571 </r>
       <r>    -2.0725    21.0255    63.7136 </r>
       <r>    -2.0175     5.2792    64.0040 </r>
       <r>    -1.9625     3.9190    64.2196 </r>
       <r>    -1.9075     8.1120    64.6658 </r>
       <r>    -1.8525     6.9658    65.0489 </r>
       <r>    -1.7975     3.9964    65.2687 </r>
       <r>    -1.7425     0.3076    65.2856 </r>
       <r>    -1.6875    10.2127    65.8474 </r>
       <r>    -1.6325     4.4753    66.0936 </r>
       <r>    -1.5775     4.4929    66.3407 </r>
       <r>    -1.5225     3.7713    66.5482 </r>
       <r>    -1.4675     7.9226    66.9839 </r>
       <r>    -1.4125     6.6814    67.3514 </r>
       <r>    -1.3575    40.4158    69.5745 </r>
       <r>    -1.3025    19.5580    70.6503 </r>
       <r>    -1.2475    32.1602    72.4192 </r>
       <r>    -1.1925    31.1335    74.1317 </r>
       <r>    -1.1374    25.5243    75.5357 </r>
       <r>    -1.0824    46.8946    78.1151 </r>
       <r>    -1.0274    34.7087    80.0242 </r>
       <r>    -0.9724    36.4462    82.0290 </r>
       <r>    -0.9174    30.9486    83.7313 </r>
       <r>    -0.8624    31.3910    85.4580 </r>
       <r>    -0.8074    27.6272    86.9776 </r>
       <r>    -0.7524    31.4931    88.7098 </r>
       <r>    -0.6974    32.7425    90.5109 </r>
       <r>    -0.6424    17.6304    91.4806 </r>
       <r>    -0.5874    16.4333    92.3845 </r>
       <r>    -0.5324    16.1846    93.2748 </r>
       <r>    -0.4774    30.1482    94.9331 </r>
       <r>    -0.4224    30.4669    96.6089 </r>
       <r>    -0.3674    20.6301    97.7436 </r>
       <r>    -0.3124    11.7590    98.3904 </r>
       <r>    -0.2574     5.3246    98.6833 </r>
       <r>    -0.2024     8.2967    99.1397 </r>
       <r>    -0.1474    22.4540   100.3748 </r>
       <r>    -0.0924    12.6616   101.0712 </r>
       <r>    -0.0374    18.6773   102.0986 </r>
       <r>     0.0176    23.0095   103.3642 </r>
       <r>     0.0727    14.9848   104.1884 </r>
       <r>     0.1277    10.8569   104.7856 </r>
       <r>     0.1827    13.0284   105.5022 </r>
       <r>     0.2377     4.8430   105.7686 </r>
       <r>     0.2927     8.5777   106.2404 </r>
       <r>     0.3477    14.0390   107.0127 </r>
       <r>     0.4027    14.5229   107.8115 </r>
       <r>     0.4577    23.1851   109.0868 </r>
       <r>     0.5127    14.4126   109.8795 </r>
       <r>     0.5677     1.1240   109.9413 </r>
       <r>     0.6227     5.9187   110.2669 </r>
       <r>     0.6777    12.1932   110.9376 </r>
       <r>     0.7327     5.9893   111.2670 </r>
       <r>     0.7877    16.2467   112.1607 </r>
       <r>     0.8427     1.4276   112.2392 </r>
       <r>     0.8977     1.4963   112.3215 </r>
       <r>     0.9527    19.1777   113.3764 </r>
       <r>     1.0077    10.5418   113.9562 </r>
       <r>     1.0627     6.2690   114.3010 </r>
       <r>     1.1177     4.1288   114.5281 </r>
       <r>     1.1727    11.7040   115.1719 </r>
       <r>     1.2277    17.5633   116.1380 </r>
       <r>     1.2827     2.6923   116.2861 </r>
       <r>     1.3378    10.6108   116.8697 </r>
       <r>     1.3928    10.5488   117.4499 </r>
       <r>     1.4478    15.2487   118.2887 </r>
       <r>     1.5028    35.4391   120.2380 </r>
       <r>     1.5578    35.6896   122.2011 </r>
       <r>     1.6128    42.8977   124.5607 </r>
       <r>     1.6678    31.9230   126.3166 </r>
       <r>     1.7228    37.6801   128.3892 </r>
       <r>     1.7778    34.0838   130.2640 </r>
       <r>     1.8328    33.2009   132.0902 </r>
       <r>     1.8878    30.8119   133.7850 </r>
       <r>     1.9428    27.8859   135.3189 </r>
       <r>     1.9978    44.7417   137.7799 </r>
       <r>     2.0528    34.7827   139.6931 </r>
       <r>     2.1078    50.6742   142.4804 </r>
       <r>     2.1628    12.6994   143.1789 </r>
       <r>     2.2178    23.5162   144.4724 </r>
       <r>     2.2728    38.2533   146.5765 </r>
       <r>     2.3278    38.8321   148.7125 </r>
       <r>     2.3828    31.7835   150.4607 </r>
       <r>     2.4378    42.2862   152.7866 </r>
       <r>     2.4928    29.8276   154.4273 </r>
       <r>     2.5478    25.6089   155.8359 </r>
       <r>     2.6029    42.4294   158.1697 </r>
       <r>     2.6579    41.6822   160.4625 </r>
       <r>     2.7129    51.5801   163.2996 </r>
       <r>     2.7679    37.9416   165.3866 </r>
       <r>     2.8229    31.8786   167.1400 </r>
       <r>     2.8779    45.2339   169.6281 </r>
       <r>     2.9329    41.0441   171.8857 </r>
       <r>     2.9879    39.1094   174.0370 </r>
       <r>     3.0429    58.2942   177.2434 </r>
       <r>     3.0979    45.9887   179.7730 </r>
       <r>     3.1529    40.4678   181.9989 </r>
       <r>     3.2079    49.6705   184.7311 </r>
       <r>     3.2629    49.0146   187.4271 </r>
       <r>     3.3179    55.9798   190.5062 </r>
       <r>     3.3729    44.2035   192.9377 </r>
       <r>     3.4279    30.8658   194.6354 </r>
       <r>     3.4829    32.8023   196.4397 </r>
       <r>     3.5379    59.2934   199.7012 </r>
       <r>     3.5929    55.0558   202.7295 </r>
       <r>     3.6479    30.8159   204.4245 </r>
       <r>     3.7029    42.6482   206.7704 </r>
       <r>     3.7579    31.3490   208.4947 </r>
       <r>     3.8129    39.2417   210.6532 </r>
       <r>     3.8680    28.5520   212.2237 </r>
       <r>     3.9230    46.9112   214.8040 </r>
       <r>     3.9780    43.5223   217.1979 </r>
       <r>     4.0330    40.8753   219.4463 </r>
       <r>     4.0880    47.0403   222.0337 </r>
       <r>     4.1430    38.1586   224.1326 </r>
       <r>     4.1980    31.0824   225.8423 </r>
       <r>     4.2530    34.8388   227.7586 </r>
       <r>     4.3080    23.9716   229.0772 </r>
       <r>     4.3630    40.4815   231.3038 </r>
       <r>     4.4180    39.7905   233.4925 </r>
       <r>     4.4730    45.1218   235.9744 </r>
       <r>     4.5280    23.5005   237.2671 </r>
       <r>     4.5830    15.0761   238.0963 </r>
       <r>     4.6380    29.2954   239.7077 </r>
       <r>     4.6930    23.6526   241.0087 </r>
       <r>     4.7480    30.0248   242.6602 </r>
       <r>     4.8030    20.3964   243.7821 </r>
       <r>     4.8580    19.9036   244.8769 </r>
       <r>     4.9130    14.9619   245.6998 </r>
       <r>     4.9680     9.8416   246.2412 </r>
       <r>     5.0230     5.5819   246.5482 </r>
       <r>     5.0781    12.1144   247.2146 </r>
       <r>     5.1331    15.2095   248.0512 </r>
       <r>     5.1881    10.6277   248.6357 </r>
       <r>     5.2431     8.8037   249.1200 </r>
       <r>     5.2981     5.4374   249.4191 </r>
       <r>     5.3531     9.8232   249.9594 </r>
       <r>     5.4081     4.1687   250.1887 </r>
       <r>     5.4631     9.1022   250.6894 </r>
       <r>     5.5181    11.7406   251.3352 </r>
       <r>     5.5731     3.6502   251.5360 </r>
       <r>     5.6281     1.0446   251.5935 </r>
       <r>     5.6831     8.8054   252.0778 </r>
       <r>     5.7381     2.9030   252.2375 </r>
       <r>     5.7931     9.5816   252.7645 </r>
       <r>     5.8481    12.2494   253.4383 </r>
       <r>     5.9031     4.8582   253.7055 </r>
       <r>     5.9581    10.4403   254.2798 </r>
       <r>     6.0131     3.3750   254.4654 </r>
       <r>     6.0681     6.4717   254.8214 </r>
       <r>     6.1231     3.9602   255.0392 </r>
       <r>     6.1781     6.3522   255.3886 </r>
       <r>     6.2331     9.0098   255.8842 </r>
       <r>     6.2881     3.6611   256.0856 </r>
       <r>     6.3432     1.9350   256.1920 </r>
       <r>     6.3982     1.8013   256.2911 </r>
       <r>     6.4532     1.2882   256.3619 </r>
       <r>     6.5082     8.3313   256.8202 </r>
       <r>     6.5632    13.3575   257.5549 </r>
       <r>     6.6182    13.8583   258.3172 </r>
       <r>     6.6732     9.9365   258.8638 </r>
       <r>     6.7282     5.7307   259.1790 </r>
       <r>     6.7832    16.4457   260.0836 </r>
       <r>     6.8382    19.7709   261.1710 </r>
       <r>     6.8932    14.0327   261.9429 </r>
       <r>     6.9482    15.4357   262.7919 </r>
       <r>     7.0032    13.8951   263.5563 </r>
       <r>     7.0582     2.3837   263.6874 </r>
       <r>     7.1132    20.7037   264.8262 </r>
       <r>     7.1682    33.4139   266.6641 </r>
       <r>     7.2232    29.8247   268.3046 </r>
       <r>     7.2782    23.8785   269.6180 </r>
       <r>     7.3332    18.7892   270.6515 </r>
       <r>     7.3882    17.8769   271.6348 </r>
       <r>     7.4432    21.6164   272.8238 </r>
       <r>     7.4982    36.4771   274.8302 </r>
       <r>     7.5532    35.9714   276.8088 </r>
       <r>     7.6083    40.4020   279.0311 </r>
       <r>     7.6633    29.3344   280.6446 </r>
       <r>     7.7183    32.1738   282.4143 </r>
       <r>     7.7733    41.9841   284.7236 </r>
       <r>     7.8283    37.7310   286.7990 </r>
       <r>     7.8833    43.6464   289.1998 </r>
       <r>     7.9383    42.2235   291.5223 </r>
       <r>     7.9933    36.0824   293.5070 </r>
       <r>     8.0483    58.3047   296.7140 </r>
       <r>     8.1033    67.0166   300.4002 </r>
       <r>     8.1583    58.3776   303.6113 </r>
       <r>     8.2133    43.6518   306.0124 </r>
       <r>     8.2683    33.3512   307.8468 </r>
       <r>     8.3233    39.4537   310.0170 </r>
       <r>     8.3783    37.1277   312.0592 </r>
       <r>     8.4333    42.5572   314.4000 </r>
       <r>     8.4883    39.9325   316.5965 </r>
       <r>     8.5433    37.0338   318.6335 </r>
       <r>     8.5983    21.6216   319.8228 </r>
       <r>     8.6533     2.5585   319.9636 </r>
       <r>     8.7083     0.3713   319.9840 </r>
       <r>     8.7633     0.0007   319.9840 </r>
       <r>     8.8183     0.2902   320.0000 </r>
       <r>     8.8734     0.0000   320.0000 </r>
       <r>     8.9284     0.0000   320.0000 </r>
       <r>     8.9834     0.0000   320.0000 </r>
       <r>     9.0384     0.0000   320.0000 </r>
       <r>     9.0934     0.0000   320.0000 </r>
       <r>     9.1484     0.0000   320.0000 </r>
       <r>     9.2034     0.0000   320.0000 </r>
       <r>     9.2584     0.0000   320.0000 </r>
       <r>     9.3134     0.0000   320.0000 </r>
       <r>     9.3684     0.0000   320.0000 </r>
       <r>     9.4234     0.0000   320.0000 </r>
       <r>     9.4784     0.0000   320.0000 </r>
       <r>     9.5334     0.0000   320.0000 </r>
      </set>
     </set>
    </array>
   </total>
  </dos>
 </calculation>
 <structure name="finalpos" >
  <crystal>
   <varray name="basis" >
    <v>      10.87136273       0.00000000       0.00000000 </v>
    <v>      -0.06293377      10.87122422       0.00000000 </v>
    <v>      -0.06293398      -0.06307189      10.87108576 </v>
   </varray>
   <i name="volume">   1284.79950778 </i>
   <varray name="rec_basis" >
    <v>       0.09198479       0.00053250       0.00053560 </v>
    <v>       0.00000000       0.09198596       0.00053368 </v>
    <v>       0.00000000       0.00000000       0.09198713 </v>
   </varray>
  </crystal>
  <varray name="positions" >
   <v>       0.08218257       0.08218257       0.08218257 </v>
   <v>      -0.00057057       0.23534473       0.23534473 </v>
   <v>       0.23534473       0.23534473      -0.00057057 </v>
   <v>       0.23534473      -0.00057057       0.23534473 </v>
   <v>       0.36729260       0.12231413       0.36729260 </v>
   <v>       0.12231413       0.36729260       0.36729260 </v>
   <v>       0.36729260       0.36729260       0.12231413 </v>
   <v>       0.49935534      -0.00025885      -0.00025885 </v>
   <v>       0.49681057       0.24823319       0.24823319 </v>
   <v>       0.75094505       0.24915619       0.99953041 </v>
   <v>       0.75094505       0.99953041       0.24915619 </v>
   <v>       0.87491463       0.12531375       0.37426962 </v>
   <v>       0.62520110       0.12494296       0.12494296 </v>
   <v>       0.62309595       0.37402071       0.37402071 </v>
   <v>       0.87491463       0.37426962       0.12531375 </v>
   <v>      -0.00025885       0.49935534      -0.00025885 </v>
   <v>       0.99953041       0.75094505       0.24915619 </v>
   <v>       0.24915619       0.75094505       0.99953041 </v>
   <v>       0.24823319       0.49681057       0.24823319 </v>
   <v>       0.37402071       0.62309595       0.37402071 </v>
   <v>       0.12494296       0.62520110       0.12494296 </v>
   <v>       0.12531375       0.87491463       0.37426962 </v>
   <v>       0.37426962       0.87491463       0.12531375 </v>
   <v>       0.49739987       0.49739987       0.00038579 </v>
   <v>       0.49957334       0.74929470       0.25010024 </v>
   <v>       0.75707549       0.75707549       0.00259864 </v>
   <v>       0.74929470       0.49957334       0.25010024 </v>
   <v>       0.87415487       0.62521364       0.37540559 </v>
   <v>       0.62639189       0.62639189       0.12457276 </v>
   <v>       0.62521364       0.87415487       0.37540559 </v>
   <v>       0.88885586       0.88885586       0.12369849 </v>
   <v>      -0.00025885      -0.00025885       0.49935534 </v>
   <v>       0.99953041       0.24915619       0.75094505 </v>
   <v>       0.24823319       0.24823319       0.49681057 </v>
   <v>       0.24915619       0.99953041       0.75094505 </v>
   <v>       0.37426962       0.12531375       0.87491463 </v>
   <v>       0.12494296       0.12494296       0.62520110 </v>
   <v>       0.12531375       0.37426962       0.87491463 </v>
   <v>       0.37402071       0.37402071       0.62309595 </v>
   <v>       0.49739987       0.00038579       0.49739987 </v>
   <v>       0.49957334       0.25010024       0.74929470 </v>
   <v>       0.74929470       0.25010024       0.49957334 </v>
   <v>       0.75707549       0.00259864       0.75707549 </v>
   <v>       0.88885586       0.12369849       0.88885586 </v>
   <v>       0.62639189       0.12457276       0.62639189 </v>
   <v>       0.62521364       0.37540559       0.87415487 </v>
   <v>       0.87415487       0.37540559       0.62521364 </v>
   <v>       0.00038579       0.49739987       0.49739987 </v>
   <v>       0.00259864       0.75707549       0.75707549 </v>
   <v>       0.25010024       0.74929470       0.49957334 </v>
   <v>       0.25010024       0.49957334       0.74929470 </v>
   <v>       0.37540559       0.62521364       0.87415487 </v>
   <v>       0.12457276       0.62639189       0.62639189 </v>
   <v>       0.12369849       0.88885586       0.88885586 </v>
   <v>       0.37540559       0.87415487       0.62521364 </v>
   <v>       0.49966163       0.49966163       0.49966163 </v>
   <v>       0.50158039       0.75096592       0.75096592 </v>
   <v>       0.75096592       0.75096592       0.50158039 </v>
   <v>       0.75096592       0.50158039       0.75096592 </v>
   <v>       0.87665806       0.62790121       0.87665806 </v>
   <v>       0.62530299       0.62530299       0.62530299 </v>
   <v>       0.62790121       0.87665806       0.87665806 </v>
   <v>       0.87665806       0.87665806       0.62790121 </v>
  </varray>
 </structure>
</modeling>
 </structure>
</modeling>
