 vasp.5.4.1 24Jun15 (build Nov 26 2018 14:23:16) complex                        
  
 POSCAR found type information on POSCAR  C  N  H 
 03/POSCAR found :  3 types and       3 ions
 scaLAPACK will be used

 ----------------------------------------------------------------------------- 
|                                                                             |
|           W    W    AA    RRRRR   N    N  II  N    N   GGGG   !!!           |
|           W    W   A  A   R    R  NN   N  II  NN   N  G    G  !!!           |
|           W    W  A    A  R    R  N N  N  II  N N  N  G       !!!           |
|           W WW W  AAAAAA  RRRRR   N  N N  II  N  N N  G  GGG   !            |
|           WW  WW  A    A  R   R   N   NN  II  N   NN  G    G                |
|           W    W  A    A  R    R  N    N  II  N    N   GGGG   !!!           |
|                                                                             |
|      For optimal performance we recommend to set                            |
|        NCORE= 4 - approx SQRT( number of cores)                             |
|      NCORE specifies how many cores store one orbital (NPAR=cpu/NCORE).     |
|      This setting can  greatly improve the performance of VASP for DFT.     |
|      The default, NPAR=number of cores might be grossly inefficient         |
|      on modern multi-core architectures or massively parallel machines.     |
|      Do your own testing !!!!                                               |
|      Unfortunately you need to use the default for GW and RPA calculations. |
|      (for HF NCORE is supported but not extensively tested yet)             |
|                                                                             |
 ----------------------------------------------------------------------------- 

 LDA part: xc-table for Ceperly-Alder, standard interpolation
 POSCAR found type information on POSCAR  C  N  H 
 00/POSCAR found :  3 types and       3 ions
 POSCAR found type information on POSCAR  C  N  H 
 06/POSCAR found :  3 types and       3 ions
 Jacobian:    24.0187391035201     
 POSCAR, INCAR and KPOINTS ok, starting setup
 WARNING: small aliasing (wrap around) errors must be expected
 FFT: planning ...
 WAVECAR not read
 entering main loop
       N       E                     dE             d eps       ncg     rms          rms(c)
DAV:   1     0.134100137173E+03    0.13410E+03   -0.17622E+03    40   0.247E+02
DAV:   2     0.276909924491E+02   -0.10641E+03   -0.10185E+03    56   0.717E+01
DAV:   3    -0.913607937828E+01   -0.36827E+02   -0.36735E+02    48   0.608E+01
DAV:   4    -0.105128754985E+02   -0.13768E+01   -0.13765E+01    48   0.117E+01
DAV:   5    -0.105217233553E+02   -0.88479E-02   -0.88471E-02    40   0.141E+00    0.165E+01
DAV:   6    -0.204472739281E+01    0.84770E+01   -0.18667E+01    56   0.210E+01    0.629E+00
DAV:   7    -0.101848836066E+01    0.10262E+01   -0.55095E+00    48   0.112E+01    0.198E+00
DAV:   8    -0.100034294802E+01    0.18145E-01   -0.21700E-01    48   0.229E+00    0.691E-01
DAV:   9    -0.985833116473E+00    0.14510E-01   -0.40821E-02    48   0.993E-01    0.181E-01
DAV:  10    -0.985411649276E+00    0.42147E-03   -0.51079E-03    56   0.410E-01    0.800E-02
DAV:  11    -0.986589310650E+00   -0.11777E-02   -0.27770E-03    32   0.229E-01    0.541E-02
DAV:  12    -0.989299751260E+00   -0.27104E-02   -0.22857E-03    48   0.218E-01    0.504E-02
DAV:  13    -0.993032181342E+00   -0.37324E-02   -0.22585E-03    32   0.213E-01    0.200E-02
DAV:  14    -0.994732462870E+00   -0.17003E-02   -0.59504E-04    48   0.939E-02    0.186E-02
DAV:  15    -0.996390234631E+00   -0.16578E-02   -0.63566E-04    32   0.916E-02    0.717E-03
DAV:  16    -0.996830695207E+00   -0.44046E-03   -0.67575E-05    48   0.287E-02    0.480E-03
DAV:  17    -0.997265055991E+00   -0.43436E-03   -0.77485E-05    48   0.283E-02    0.407E-03
DAV:  18    -0.997330173023E+00   -0.65117E-04   -0.39424E-06    40   0.823E-03    0.149E-03
DAV:  19    -0.997408510100E+00   -0.78337E-04   -0.22411E-06    48   0.576E-03    0.106E-03
DAV:  20    -0.997441125746E+00   -0.32616E-04   -0.15264E-06    32   0.423E-03    0.468E-04
DAV:  21    -0.997459164526E+00   -0.18039E-04   -0.88926E-07    32   0.302E-03    0.279E-04
DAV:  22    -0.997462958439E+00   -0.37939E-05   -0.65190E-08    32   0.127E-03
   1 F= -.99746296E+00 E0= -.99746296E+00  d E =-.997463E+00
quench:  g(F)=  0.000E+00 g(S)=  0.000E+00 dE (1.order)= 0.000E+00
 bond charge predicted
       N       E                     dE             d eps       ncg     rms          rms(c)
DAV:   1    -0.165420931419E+01   -0.65675E+00   -0.69170E-02    32   0.157E+00    0.180E-01
DAV:   2    -0.165328920571E+01    0.92011E-03   -0.26566E-03    48   0.280E-01    0.756E-02
DAV:   3    -0.165317118019E+01    0.11803E-03   -0.10649E-03    56   0.167E-01    0.216E-02
DAV:   4    -0.165316198573E+01    0.91945E-05   -0.81684E-05    32   0.412E-02
   2 F= -.16531620E+01 E0= -.16531620E+01  d E =-.655699E+00
quench:  g(F)=  0.000E+00 g(S)=  0.000E+00 dE (1.order)= 0.000E+00
 bond charge predicted
       N       E                     dE             d eps       ncg     rms          rms(c)
DAV:   1    -0.108975300814E+02   -0.92444E+01   -0.22807E+01    48   0.286E+01    0.305E+00
DAV:   2    -0.106250610440E+02    0.27247E+00   -0.82960E-01    64   0.466E+00    0.130E+00
DAV:   3    -0.105944149656E+02    0.30646E-01   -0.24460E-01    64   0.245E+00    0.328E-01
DAV:   4    -0.105941224623E+02    0.29250E-03   -0.55319E-03    56   0.331E-01    0.149E-01
DAV:   5    -0.105939818835E+02    0.14058E-03   -0.94997E-04    48   0.189E-01    0.238E-02
DAV:   6    -0.105939922695E+02   -0.10386E-04   -0.12650E-04    56   0.641E-02    0.119E-02
DAV:   7    -0.105940018276E+02   -0.95580E-05   -0.19453E-05    48   0.213E-02
   3 F= -.10594002E+02 E0= -.10594002E+02  d E =-.894084E+01
quench:  g(F)=  0.000E+00 g(S)=  0.000E+00 dE (1.order)= 0.000E+00
 bond charge predicted
       N       E                     dE             d eps       ncg     rms          rms(c)
DAV:   1    -0.164385833698E+02   -0.58446E+01   -0.38072E+01    48   0.366E+01    0.330E+00
DAV:   2    -0.161370421183E+02    0.30154E+00   -0.10763E+00    56   0.512E+00    0.154E+00
DAV:   3    -0.160925014127E+02    0.44541E-01   -0.33433E-01    64   0.264E+00    0.407E-01
DAV:   4    -0.160921282452E+02    0.37317E-03   -0.69473E-03    56   0.420E-01    0.194E-01
DAV:   5    -0.160920547562E+02    0.73489E-04   -0.15761E-03    48   0.189E-01    0.386E-02
DAV:   6    -0.160920400800E+02    0.14676E-04   -0.15215E-04    40   0.636E-02    0.147E-02
DAV:   7    -0.160920772999E+02   -0.37220E-04   -0.35402E-05    40   0.289E-02    0.662E-03
DAV:   8    -0.160921471569E+02   -0.69857E-04   -0.25719E-05    48   0.219E-02    0.411E-03
DAV:   9    -0.160922143682E+02   -0.67211E-04   -0.24450E-05    32   0.168E-02    0.251E-03
DAV:  10    -0.160922800805E+02   -0.65712E-04   -0.15176E-05    48   0.108E-02    0.106E-03
DAV:  11    -0.160923127501E+02   -0.32670E-04   -0.27596E-06    32   0.462E-03    0.695E-04
DAV:  12    -0.160923477644E+02   -0.35014E-04   -0.36316E-06    32   0.570E-03    0.488E-04
DAV:  13    -0.160923598524E+02   -0.12088E-04   -0.66362E-07    64   0.280E-03    0.292E-04
DAV:  14    -0.160923661835E+02   -0.63311E-05   -0.32748E-07    32   0.272E-03
   4 F= -.16092366E+02 E0= -.16092366E+02  d E =-.549836E+01
quench:  g(F)=  0.000E+00 g(S)=  0.000E+00 dE (1.order)= 0.000E+00
 bond charge predicted
       N       E                     dE             d eps       ncg     rms          rms(c)
DAV:   1    -0.175014950521E+02   -0.14091E+01   -0.14510E+01    32   0.222E+01    0.169E+00
DAV:   2    -0.174305418005E+02    0.70953E-01   -0.29566E-01    56   0.276E+00    0.849E-01
DAV:   3    -0.174160863599E+02    0.14455E-01   -0.95358E-02    64   0.142E+00    0.220E-01
DAV:   4    -0.174162774475E+02   -0.19109E-03   -0.31259E-03    48   0.277E-01    0.111E-01
DAV:   5    -0.174162830587E+02   -0.56112E-05   -0.50740E-04    40   0.105E-01    0.284E-02
DAV:   6    -0.174163129563E+02   -0.29898E-04   -0.83026E-05    40   0.504E-02    0.111E-02
DAV:   7    -0.174163463214E+02   -0.33365E-04   -0.22034E-05    56   0.218E-02    0.422E-03
DAV:   8    -0.174163772916E+02   -0.30970E-04   -0.91283E-06    40   0.127E-02    0.245E-03
DAV:   9    -0.174164207777E+02   -0.43486E-04   -0.16816E-05    40   0.139E-02    0.162E-03
DAV:  10    -0.174164438611E+02   -0.23083E-04   -0.45684E-06    64   0.647E-03    0.113E-03
DAV:  11    -0.174164618999E+02   -0.18039E-04   -0.21166E-06    48   0.437E-03    0.469E-04
DAV:  12    -0.174164784436E+02   -0.16544E-04   -0.21096E-06    40   0.468E-03    0.578E-04
DAV:  13    -0.174164806821E+02   -0.22384E-05   -0.33977E-08    64   0.962E-04
   5 F= -.17416481E+02 E0= -.17416481E+02  d E =-.132411E+01
quench:  g(F)=  0.000E+00 g(S)=  0.000E+00 dE (1.order)= 0.000E+00
 bond charge predicted
       N       E                     dE             d eps       ncg     rms          rms(c)
DAV:   1    -0.177865784841E+02   -0.37010E+00   -0.74358E+00    32   0.157E+01    0.107E+00
DAV:   2    -0.177615852051E+02    0.24993E-01   -0.12658E-01    48   0.183E+00    0.557E-01
DAV:   3    -0.177557016487E+02    0.58836E-02   -0.39307E-02    64   0.898E-01    0.146E-01
DAV:   4    -0.177557817606E+02   -0.80112E-04   -0.12699E-03    48   0.180E-01    0.745E-02
DAV:   5    -0.177558284537E+02   -0.46693E-04   -0.18768E-04    40   0.702E-02    0.136E-02
DAV:   6    -0.177558494076E+02   -0.20954E-04   -0.26159E-05    48   0.255E-02    0.696E-03
DAV:   7    -0.177558766691E+02   -0.27262E-04   -0.10978E-05    40   0.146E-02    0.277E-03
DAV:   8    -0.177559026199E+02   -0.25951E-04   -0.60283E-06    40   0.985E-03    0.174E-03
DAV:   9    -0.177559316110E+02   -0.28991E-04   -0.10006E-05    40   0.105E-02    0.113E-03
DAV:  10    -0.177559465495E+02   -0.14939E-04   -0.28201E-06    48   0.493E-03    0.802E-04
DAV:  11    -0.177559570874E+02   -0.10538E-04   -0.12324E-06    64   0.344E-03    0.385E-04
DAV:  12    -0.177559656007E+02   -0.85133E-05   -0.96131E-07    40   0.327E-03
   6 F= -.17755966E+02 E0= -.17755966E+02  d E =-.339485E+00
quench:  g(F)=  0.000E+00 g(S)=  0.000E+00 dE (1.order)= 0.000E+00
 bond charge predicted
       N       E                     dE             d eps       ncg     rms          rms(c)
DAV:   1    -0.177917222441E+02   -0.35765E-01   -0.23677E+00    32   0.878E+00    0.557E-01
DAV:   2    -0.177861941151E+02    0.55281E-02   -0.37821E-02    48   0.100E+00    0.298E-01
DAV:   3    -0.177843560707E+02    0.18380E-02   -0.11035E-02    56   0.471E-01    0.816E-02
DAV:   4    -0.177843906916E+02   -0.34621E-04   -0.43103E-04    40   0.103E-01    0.431E-02
DAV:   5    -0.177844111855E+02   -0.20494E-04   -0.79340E-05    40   0.399E-02    0.102E-02
DAV:   6    -0.177844243627E+02   -0.13177E-04   -0.16355E-05    48   0.189E-02    0.487E-03
DAV:   7    -0.177844353944E+02   -0.11032E-04   -0.47862E-06    40   0.843E-03    0.219E-03
DAV:   8    -0.177844467772E+02   -0.11383E-04   -0.24849E-06    40   0.628E-03    0.131E-03
DAV:   9    -0.177844591278E+02   -0.12351E-04   -0.24589E-06    40   0.533E-03    0.708E-04
DAV:  10    -0.177844680725E+02   -0.89447E-05   -0.26004E-06    40   0.501E-03
   7 F= -.17784468E+02 E0= -.17784468E+02  d E =-.285025E-01
quench:  g(F)=  0.000E+00 g(S)=  0.000E+00 dE (1.order)= 0.000E+00
 bond charge predicted
       N       E                     dE             d eps       ncg     rms          rms(c)
DAV:   1    -0.177725454834E+02    0.11914E-01   -0.35978E-01    48   0.345E+00    0.207E-01
DAV:   2    -0.177719439898E+02    0.60149E-03   -0.62762E-03    32   0.402E-01    0.110E-01
DAV:   3    -0.177717116674E+02    0.23232E-03   -0.13683E-03    40   0.169E-01    0.358E-02
DAV:   4    -0.177717148699E+02   -0.32024E-05   -0.55112E-05    56   0.409E-02
   8 F= -.17771715E+02 E0= -.17771715E+02  d E =0.127532E-01
quench:  g(F)=  0.000E+00 g(S)=  0.000E+00 dE (1.order)= 0.000E+00
 bond charge predicted
       N       E                     dE             d eps       ncg     rms          rms(c)
DAV:   1    -0.177804979406E+02   -0.87863E-02   -0.20653E-01    32   0.233E+00    0.156E-01
DAV:   2    -0.177801125115E+02    0.38543E-03   -0.26489E-03    56   0.270E-01    0.916E-02
DAV:   3    -0.177799353266E+02    0.17718E-03   -0.13395E-03    48   0.161E-01    0.246E-02
DAV:   4    -0.177799305402E+02    0.47864E-05   -0.68993E-05    40   0.389E-02
   9 F= -.17779931E+02 E0= -.17779931E+02  d E =-.821567E-02
quench:  g(F)=  0.000E+00 g(S)=  0.000E+00 dE (1.order)= 0.000E+00
 bond charge predicted
       N       E                     dE             d eps       ncg     rms          rms(c)
DAV:   1    -0.177821105864E+02   -0.21753E-02   -0.31512E-01    32   0.292E+00    0.200E-01
DAV:   2    -0.177816393822E+02    0.47120E-03   -0.38130E-03    48   0.329E-01    0.118E-01
DAV:   3    -0.177813519587E+02    0.28742E-03   -0.23013E-03    56   0.210E-01    0.314E-02
DAV:   4    -0.177813416895E+02    0.10269E-04   -0.16076E-04    48   0.585E-02    0.144E-02
DAV:   5    -0.177813520032E+02   -0.10314E-04   -0.13024E-05    40   0.169E-02    0.338E-03
DAV:   6    -0.177813579775E+02   -0.59743E-05   -0.11703E-06    48   0.474E-03
  10 F= -.17781358E+02 E0= -.17781358E+02  d E =-.142744E-02
quench:  g(F)=  0.000E+00 g(S)=  0.000E+00 dE (1.order)= 0.000E+00
 bond charge predicted
       N       E                     dE             d eps       ncg     rms          rms(c)
DAV:   1    -0.177760989600E+02    0.52530E-02   -0.15873E-01    32   0.207E+00    0.140E-01
DAV:   2    -0.177759267685E+02    0.17219E-03   -0.19797E-03    56   0.216E-01    0.826E-02
DAV:   3    -0.177758204669E+02    0.10630E-03   -0.60576E-04    40   0.101E-01    0.224E-02
DAV:   4    -0.177758184472E+02    0.20197E-05   -0.48887E-05    40   0.285E-02
  11 F= -.17775818E+02 E0= -.17775818E+02  d E =0.553953E-02
quench:  g(F)=  0.000E+00 g(S)=  0.000E+00 dE (1.order)= 0.000E+00
 bond charge predicted
       N       E                     dE             d eps       ncg     rms          rms(c)
DAV:   1    -0.177526134827E+02    0.23207E-01   -0.31051E+00    40   0.939E+00    0.612E-01
DAV:   2    -0.177506489578E+02    0.19645E-02   -0.39756E-02    48   0.973E-01    0.362E-01
DAV:   3    -0.177491699704E+02    0.14790E-02   -0.85104E-03    48   0.342E-01    0.114E-01
DAV:   4    -0.177490215553E+02    0.14842E-03   -0.11029E-03    48   0.136E-01    0.390E-02
DAV:   5    -0.177490396196E+02   -0.18064E-04   -0.20200E-04    32   0.639E-02    0.161E-02
DAV:   6    -0.177490757206E+02   -0.36101E-04   -0.30434E-05    40   0.226E-02    0.417E-03
DAV:   7    -0.177491265861E+02   -0.50866E-04   -0.53705E-06    32   0.987E-03    0.188E-03
DAV:   8    -0.177492087628E+02   -0.82177E-04   -0.11819E-05    40   0.103E-02    0.113E-03
DAV:   9    -0.177492649832E+02   -0.56220E-04   -0.80009E-06    56   0.837E-03    0.633E-04
DAV:  10    -0.177492878753E+02   -0.22892E-04   -0.12512E-06    40   0.362E-03    0.379E-04
DAV:  11    -0.177493032455E+02   -0.15370E-04   -0.55371E-07    32   0.298E-03    0.183E-04
DAV:  12    -0.177493066884E+02   -0.34429E-05   -0.10299E-07    48   0.156E-03
  12 F= -.17749307E+02 E0= -.17749307E+02  d E =0.265118E-01
quench:  g(F)=  0.000E+00 g(S)=  0.000E+00 dE (1.order)= 0.000E+00
 bond charge predicted
       N       E                     dE             d eps       ncg     rms          rms(c)
DAV:   1    -0.178043059805E+02   -0.55003E-01   -0.47175E+01    40   0.369E+01    0.248E+00
DAV:   2    -0.177703794930E+02    0.33926E-01   -0.63777E-01    48   0.395E+00    0.143E+00
DAV:   3    -0.177481054621E+02    0.22274E-01   -0.11581E-01    56   0.124E+00    0.354E-01
DAV:   4    -0.177477450550E+02    0.36041E-03   -0.10720E-02    32   0.403E-01    0.154E-01
DAV:   5    -0.177472392898E+02    0.50577E-03   -0.18153E-03    32   0.166E-01    0.738E-02
DAV:   6    -0.177472656612E+02   -0.26371E-04   -0.44609E-04    32   0.103E-01    0.148E-02
DAV:   7    -0.177475019651E+02   -0.23630E-03   -0.45412E-05    32   0.318E-02    0.929E-03
DAV:   8    -0.177482873252E+02   -0.78536E-03   -0.17440E-04    32   0.505E-02    0.512E-03
DAV:   9    -0.177487691708E+02   -0.48185E-03   -0.80376E-05    32   0.298E-02    0.367E-03
DAV:  10    -0.177491756388E+02   -0.40647E-03   -0.11127E-04    32   0.324E-02    0.191E-03
DAV:  11    -0.177493068129E+02   -0.13117E-03   -0.13022E-05    48   0.163E-02    0.127E-03
DAV:  12    -0.177493369839E+02   -0.30171E-04   -0.41990E-06    32   0.765E-03    0.680E-04
DAV:  13    -0.177493713077E+02   -0.34324E-04   -0.16111E-06    32   0.421E-03    0.431E-04
DAV:  14    -0.177493822038E+02   -0.10896E-04   -0.58078E-07    48   0.214E-03    0.298E-04
DAV:  15    -0.177493879234E+02   -0.57197E-05   -0.16786E-07    32   0.128E-03
  13 F= -.17749388E+02 E0= -.17749388E+02  d E =-.812350E-04
quench:  g(F)=  0.000E+00 g(S)=  0.000E+00 dE (1.order)= 0.000E+00
 bond charge predicted
       N       E                     dE             d eps       ncg     rms          rms(c)
DAV:   1    -0.180805530294E+02   -0.33117E+00   -0.32669E+01    32   0.314E+01    0.211E+00
DAV:   2    -0.180416672243E+02    0.38886E-01   -0.93597E-01    56   0.406E+00    0.112E+00
DAV:   3    -0.180321358987E+02    0.95313E-02   -0.69888E-02    48   0.104E+00    0.608E-01
DAV:   4    -0.180291837193E+02    0.29522E-02   -0.20388E-02    40   0.656E-01    0.118E-01
DAV:   5    -0.180290730028E+02    0.11072E-03   -0.21916E-03    32   0.227E-01    0.513E-02
DAV:   6    -0.180293535711E+02   -0.28057E-03   -0.21654E-04    32   0.766E-02    0.159E-02
DAV:   7    -0.180297834078E+02   -0.42984E-03   -0.84391E-05    32   0.371E-02    0.107E-02
DAV:   8    -0.180305946844E+02   -0.81128E-03   -0.13547E-04    32   0.459E-02    0.620E-03
DAV:   9    -0.180315548280E+02   -0.96014E-03   -0.27200E-04    32   0.545E-02    0.331E-03
DAV:  10    -0.180317954831E+02   -0.24066E-03   -0.49671E-05    48   0.223E-02    0.221E-03
DAV:  11    -0.180319597021E+02   -0.16422E-03   -0.15603E-05    32   0.172E-02    0.129E-03
DAV:  12    -0.180320069704E+02   -0.47268E-04   -0.52989E-06    32   0.926E-03    0.909E-04
DAV:  13    -0.180320518511E+02   -0.44881E-04   -0.24230E-06    32   0.553E-03    0.531E-04
DAV:  14    -0.180320609132E+02   -0.90620E-05   -0.40831E-07    48   0.204E-03
  14 F= -.18032061E+02 E0= -.18032061E+02  d E =-.282673E+00
quench:  g(F)=  0.000E+00 g(S)=  0.000E+00 dE (1.order)= 0.000E+00
 bond charge predicted
       N       E                     dE             d eps       ncg     rms          rms(c)
DAV:   1    -0.176083806542E+02    0.42367E+00   -0.50579E+01    48   0.364E+01    0.249E+00
DAV:   2    -0.175098267667E+02    0.98554E-01   -0.75876E-01    40   0.398E+00    0.128E+00
DAV:   3    -0.174810366953E+02    0.28790E-01   -0.16330E-01    56   0.147E+00    0.278E-01
DAV:   4    -0.174816649676E+02   -0.62827E-03   -0.11092E-02    40   0.501E-01    0.130E-01
DAV:   5    -0.174821374219E+02   -0.47245E-03   -0.19355E-03    32   0.187E-01    0.453E-02
DAV:   6    -0.174824118390E+02   -0.27442E-03   -0.21740E-04    56   0.722E-02    0.204E-02
DAV:   7    -0.174827936149E+02   -0.38178E-03   -0.10961E-04    40   0.463E-02    0.827E-03
DAV:   8    -0.174832528387E+02   -0.45922E-03   -0.97177E-05    56   0.384E-02    0.620E-03
DAV:   9    -0.174837975584E+02   -0.54472E-03   -0.16609E-04    40   0.442E-02    0.325E-03
DAV:  10    -0.174840309356E+02   -0.23338E-03   -0.56002E-05    56   0.236E-02    0.189E-03
DAV:  11    -0.174841438048E+02   -0.11287E-03   -0.12827E-05    48   0.135E-02    0.115E-03
DAV:  12    -0.174842084883E+02   -0.64683E-04   -0.39565E-06    56   0.830E-03    0.662E-04
DAV:  13    -0.174842346131E+02   -0.26125E-04   -0.11065E-06    40   0.392E-03    0.423E-04
DAV:  14    -0.174842508310E+02   -0.16218E-04   -0.77547E-07    32   0.314E-03    0.184E-04
DAV:  15    -0.174842547020E+02   -0.38711E-05   -0.71787E-08    64   0.144E-03
  15 F= -.17484255E+02 E0= -.17484255E+02  d E =0.547806E+00
quench:  g(F)=  0.000E+00 g(S)=  0.000E+00 dE (1.order)= 0.000E+00
 bond charge predicted
       N       E                     dE             d eps       ncg     rms          rms(c)
DAV:   1    -0.177085977319E+02   -0.22435E+00   -0.11304E+01    32   0.181E+01    0.101E+00
DAV:   2    -0.177018701335E+02    0.67276E-02   -0.29733E-01    48   0.247E+00    0.571E-01
DAV:   3    -0.176991603979E+02    0.27097E-02   -0.20958E-02    56   0.599E-01    0.301E-01
DAV:   4    -0.176984120871E+02    0.74831E-03   -0.52017E-03    32   0.351E-01    0.647E-02
DAV:   5    -0.176985910462E+02   -0.17896E-03   -0.61287E-04    40   0.127E-01    0.325E-02
DAV:   6    -0.176988192084E+02   -0.22816E-03   -0.15200E-04    32   0.556E-02    0.108E-02
DAV:   7    -0.176989803704E+02   -0.16116E-03   -0.52942E-05    40   0.309E-02    0.577E-03
DAV:   8    -0.176992816286E+02   -0.30126E-03   -0.63760E-05    40   0.331E-02    0.401E-03
DAV:   9    -0.176995177716E+02   -0.23614E-03   -0.64947E-05    40   0.280E-02    0.336E-03
DAV:  10    -0.176996139534E+02   -0.96182E-04   -0.12330E-05    56   0.118E-02    0.186E-03
DAV:  11    -0.176996766271E+02   -0.62674E-04   -0.49256E-06    40   0.827E-03    0.677E-04
DAV:  12    -0.176997066517E+02   -0.30025E-04   -0.72770E-07    32   0.436E-03    0.458E-04
DAV:  13    -0.176997273422E+02   -0.20690E-04   -0.66622E-07    32   0.375E-03    0.249E-04
DAV:  14    -0.176997356701E+02   -0.83279E-05   -0.48624E-07    40   0.284E-03
  16 F= -.17699736E+02 E0= -.17699736E+02  d E =-.215481E+00
quench:  g(F)=  0.000E+00 g(S)=  0.000E+00 dE (1.order)= 0.000E+00
 bond charge predicted
       N       E                     dE             d eps       ncg     rms          rms(c)
DAV:   1    -0.173362859719E+02    0.36344E+00   -0.14372E+02    32   0.656E+01    0.288E+00
DAV:   2    -0.176005901101E+02   -0.26430E+00   -0.31902E+00    48   0.952E+00    0.202E+00
DAV:   3    -0.175677257449E+02    0.32864E-01   -0.12043E-01    48   0.148E+00    0.814E-01
DAV:   4    -0.175702440020E+02   -0.25183E-02   -0.31181E-02    48   0.844E-01    0.234E-01
DAV:   5    -0.175697668592E+02    0.47714E-03   -0.72809E-03    40   0.385E-01    0.503E-02
DAV:   6    -0.175701506667E+02   -0.38381E-03   -0.45394E-04    40   0.100E-01    0.256E-02
DAV:   7    -0.175707012340E+02   -0.55057E-03   -0.14753E-04    32   0.618E-02    0.145E-02
DAV:   8    -0.175721205911E+02   -0.14194E-02   -0.51183E-04    32   0.101E-01    0.807E-03
DAV:   9    -0.175732119578E+02   -0.10914E-02   -0.35961E-04    40   0.683E-02    0.549E-03
DAV:  10    -0.175737832512E+02   -0.57129E-03   -0.20368E-04    40   0.451E-02    0.296E-03
DAV:  11    -0.175739585860E+02   -0.17533E-03   -0.14819E-05    56   0.199E-02    0.179E-03
DAV:  12    -0.175740287519E+02   -0.70166E-04   -0.43583E-06    40   0.974E-03    0.109E-03
DAV:  13    -0.175740757745E+02   -0.47023E-04   -0.32861E-06    32   0.602E-03    0.545E-04
DAV:  14    -0.175740998138E+02   -0.24039E-04   -0.12553E-06    32   0.330E-03    0.351E-04
DAV:  15    -0.175741097559E+02   -0.99421E-05   -0.33698E-07    32   0.195E-03
  17 F= -.17574110E+02 E0= -.17574110E+02  d E =0.125626E+00
quench:  g(F)=  0.000E+00 g(S)=  0.000E+00 dE (1.order)= 0.000E+00
 bond charge predicted
       N       E                     dE             d eps       ncg     rms          rms(c)
DAV:   1    -0.177193305288E+02   -0.14523E+00   -0.61449E+01    32   0.432E+01    0.213E+00
DAV:   2    -0.177759407228E+02   -0.56610E-01   -0.97116E-01    40   0.532E+00    0.135E+00
DAV:   3    -0.177681162706E+02    0.78245E-02   -0.11977E-01    48   0.129E+00    0.577E-01
DAV:   4    -0.177656565341E+02    0.24597E-02   -0.26598E-02    56   0.637E-01    0.175E-01
DAV:   5    -0.177654088869E+02    0.24765E-03   -0.21585E-03    48   0.220E-01    0.717E-02
DAV:   6    -0.177655310169E+02   -0.12213E-03   -0.56335E-04    32   0.111E-01    0.188E-02
DAV:   7    -0.177658289969E+02   -0.29798E-03   -0.12955E-04    40   0.520E-02    0.105E-02
DAV:   8    -0.177664522719E+02   -0.62328E-03   -0.15224E-04    32   0.469E-02    0.795E-03
DAV:   9    -0.177671022346E+02   -0.64996E-03   -0.15062E-04    40   0.448E-02    0.384E-03
DAV:  10    -0.177675439338E+02   -0.44170E-03   -0.94533E-05    40   0.327E-02    0.180E-03
DAV:  11    -0.177676396121E+02   -0.95678E-04   -0.97657E-06    56   0.119E-02    0.132E-03
DAV:  12    -0.177677284687E+02   -0.88857E-04   -0.47480E-06    32   0.114E-02    0.573E-04
DAV:  13    -0.177677532485E+02   -0.24780E-04   -0.17932E-06    32   0.498E-03    0.385E-04
DAV:  14    -0.177677680745E+02   -0.14826E-04   -0.63107E-07    32   0.266E-03    0.263E-04
DAV:  15    -0.177677722887E+02   -0.42142E-05   -0.14823E-07    32   0.128E-03
  18 F= -.17767772E+02 E0= -.17767772E+02  d E =-.193663E+00
quench:  g(F)=  0.000E+00 g(S)=  0.000E+00 dE (1.order)= 0.000E+00
 bond charge predicted
       N       E                     dE             d eps       ncg     rms          rms(c)
DAV:   1    -0.177045737886E+02    0.63194E-01   -0.75142E+00    48   0.153E+01    0.946E-01
DAV:   2    -0.176973676892E+02    0.72061E-02   -0.14030E-01    32   0.183E+00    0.530E-01
DAV:   3    -0.176934232978E+02    0.39444E-02   -0.24466E-02    56   0.620E-01    0.170E-01
DAV:   4    -0.176933083036E+02    0.11499E-03   -0.18005E-03    40   0.205E-01    0.769E-02
DAV:   5    -0.176933941433E+02   -0.85840E-04   -0.44655E-04    32   0.821E-02    0.208E-02
DAV:   6    -0.176935120564E+02   -0.11791E-03   -0.40439E-05    56   0.325E-02    0.790E-03
DAV:   7    -0.176936606929E+02   -0.14864E-03   -0.25687E-05    40   0.183E-02    0.390E-03
DAV:   8    -0.176937878869E+02   -0.12719E-03   -0.15681E-05    40   0.134E-02    0.215E-03
DAV:   9    -0.176939310834E+02   -0.14320E-03   -0.20752E-05    40   0.141E-02    0.110E-03
DAV:  10    -0.176940125648E+02   -0.81481E-04   -0.14835E-05    56   0.120E-02    0.893E-04
DAV:  11    -0.176940472682E+02   -0.34703E-04   -0.22140E-06    40   0.605E-03    0.345E-04
DAV:  12    -0.176940535036E+02   -0.62355E-05   -0.32364E-07    48   0.282E-03
  19 F= -.17694054E+02 E0= -.17694054E+02  d E =0.737188E-01
quench:  g(F)=  0.000E+00 g(S)=  0.000E+00 dE (1.order)= 0.000E+00
 bond charge predicted
       N       E                     dE             d eps       ncg     rms          rms(c)
DAV:   1    -0.177564464464E+02   -0.62399E-01   -0.24597E+00    48   0.881E+00    0.533E-01
DAV:   2    -0.177516838693E+02    0.47626E-02   -0.53782E-02    48   0.115E+00    0.290E-01
DAV:   3    -0.177503559816E+02    0.13279E-02   -0.72903E-03    56   0.381E-01    0.106E-01
DAV:   4    -0.177503143851E+02    0.41597E-04   -0.72227E-04    32   0.144E-01    0.456E-02
DAV:   5    -0.177503760071E+02   -0.61622E-04   -0.18397E-04    40   0.530E-02    0.143E-02
DAV:   6    -0.177504156818E+02   -0.39675E-04   -0.30645E-05    32   0.285E-02    0.469E-03
DAV:   7    -0.177504733312E+02   -0.57649E-04   -0.13593E-05    40   0.156E-02    0.233E-03
DAV:   8    -0.177505016475E+02   -0.28316E-04   -0.40183E-06    40   0.832E-03    0.152E-03
DAV:   9    -0.177505514616E+02   -0.49814E-04   -0.15806E-05    40   0.135E-02    0.146E-03
DAV:  10    -0.177505615579E+02   -0.10096E-04   -0.33015E-06    40   0.655E-03    0.799E-04
DAV:  11    -0.177505720754E+02   -0.10517E-04   -0.70896E-07    40   0.363E-03    0.275E-04
DAV:  12    -0.177505763845E+02   -0.43092E-05   -0.84656E-08    48   0.141E-03
  20 F= -.17750576E+02 E0= -.17750576E+02  d E =-.565229E-01
quench:  g(F)=  0.000E+00 g(S)=  0.000E+00 dE (1.order)= 0.000E+00
 bond charge predicted
       N       E                     dE             d eps       ncg     rms          rms(c)
DAV:   1    -0.177538561906E+02   -0.32841E-02   -0.58149E-01    32   0.409E+00    0.190E-01
DAV:   2    -0.177541476420E+02   -0.29145E-03   -0.97624E-03    48   0.512E-01    0.120E-01
DAV:   3    -0.177539265402E+02    0.22110E-03   -0.96665E-04    40   0.141E-01    0.310E-02
DAV:   4    -0.177539408510E+02   -0.14311E-04   -0.95914E-05    56   0.489E-02    0.150E-02
DAV:   5    -0.177539584554E+02   -0.17604E-04   -0.18658E-05    32   0.189E-02    0.508E-03
DAV:   6    -0.177539695396E+02   -0.11084E-04   -0.49015E-06    40   0.101E-02    0.143E-03
DAV:   7    -0.177539853292E+02   -0.15790E-04   -0.17843E-06    32   0.512E-03    0.865E-04
DAV:   8    -0.177540056395E+02   -0.20310E-04   -0.46476E-06    40   0.737E-03    0.616E-04
DAV:   9    -0.177540159468E+02   -0.10307E-04   -0.20466E-06    40   0.466E-03    0.342E-04
DAV:  10    -0.177540199919E+02   -0.40451E-05   -0.29185E-07    56   0.180E-03
  21 F= -.17754020E+02 E0= -.17754020E+02  d E =-.344361E-02
quench:  g(F)=  0.000E+00 g(S)=  0.000E+00 dE (1.order)= 0.000E+00
 bond charge predicted
       N       E                     dE             d eps       ncg     rms          rms(c)
DAV:   1    -0.177535874007E+02    0.42855E-03   -0.14441E-01    32   0.210E+00    0.121E-01
DAV:   2    -0.177536514222E+02   -0.64021E-04   -0.17951E-03    40   0.228E-01    0.705E-02
DAV:   3    -0.177536094310E+02    0.41991E-04   -0.27598E-04    40   0.625E-02    0.196E-02
DAV:   4    -0.177536064136E+02    0.30174E-05   -0.57777E-05    56   0.293E-02
  22 F= -.17753606E+02 E0= -.17753606E+02  d E =0.413578E-03
quench:  g(F)=  0.000E+00 g(S)=  0.000E+00 dE (1.order)= 0.000E+00
 bond charge predicted
       N       E                     dE             d eps       ncg     rms          rms(c)
DAV:   1    -0.177532448431E+02    0.36459E-03   -0.38831E-02    32   0.109E+00    0.601E-02
DAV:   2    -0.177532195004E+02    0.25343E-04   -0.56691E-04    56   0.128E-01    0.344E-02
DAV:   3    -0.177531959400E+02    0.23560E-04   -0.16791E-04    48   0.550E-02    0.918E-03
DAV:   4    -0.177531973299E+02   -0.13898E-05   -0.11630E-05    40   0.144E-02
  23 F= -.17753197E+02 E0= -.17753197E+02  d E =0.409084E-03
quench:  g(F)=  0.000E+00 g(S)=  0.000E+00 dE (1.order)= 0.000E+00
 bond charge predicted
       N       E                     dE             d eps       ncg     rms          rms(c)
DAV:   1    -0.177537466478E+02   -0.55071E-03   -0.46316E-02    48   0.115E+00    0.551E-02
DAV:   2    -0.177537568305E+02   -0.10183E-04   -0.78067E-04    40   0.144E-01    0.338E-02
DAV:   3    -0.177537388235E+02    0.18007E-04   -0.89049E-05    48   0.420E-02    0.884E-03
DAV:   4    -0.177537404752E+02   -0.16518E-05   -0.86943E-06    32   0.151E-02
  24 F= -.17753740E+02 E0= -.17753740E+02  d E =-.543145E-03
quench:  g(F)=  0.000E+00 g(S)=  0.000E+00 dE (1.order)= 0.000E+00
 bond charge predicted
       N       E                     dE             d eps       ncg     rms          rms(c)
DAV:   1    -0.177538902155E+02   -0.15139E-03   -0.26224E-02    32   0.852E-01    0.576E-02
DAV:   2    -0.177538541096E+02    0.36106E-04   -0.30078E-04    56   0.843E-02    0.330E-02
DAV:   3    -0.177538384630E+02    0.15647E-04   -0.97227E-05    32   0.385E-02    0.842E-03
DAV:   4    -0.177538392097E+02   -0.74674E-06   -0.98862E-06    40   0.126E-02
  25 F= -.17753839E+02 E0= -.17753839E+02  d E =-.987345E-04
quench:  g(F)=  0.000E+00 g(S)=  0.000E+00 dE (1.order)= 0.000E+00
 bond charge predicted
       N       E                     dE             d eps       ncg     rms          rms(c)
DAV:   1    -0.177538531826E+02   -0.14720E-04   -0.70849E-03    32   0.460E-01    0.287E-02
DAV:   2    -0.177538518429E+02    0.13397E-05   -0.67408E-05    40   0.420E-02
  26 F= -.17753852E+02 E0= -.17753852E+02  d E =-.126331E-04
quench:  g(F)=  0.000E+00 g(S)=  0.000E+00 dE (1.order)= 0.000E+00
 bond charge predicted
       N       E                     dE             d eps       ncg     rms          rms(c)
DAV:   1    -0.177536250975E+02    0.22809E-03   -0.35853E-02    32   0.106E+00    0.626E-02
DAV:   2    -0.177536358452E+02   -0.10748E-04   -0.46149E-04    40   0.114E-01    0.368E-02
DAV:   3    -0.177536141048E+02    0.21740E-04   -0.76896E-05    56   0.408E-02    0.744E-03
DAV:   4    -0.177536148041E+02   -0.69929E-06   -0.79279E-06    40   0.123E-02
  27 F= -.17753615E+02 E0= -.17753615E+02  d E =0.237039E-03
quench:  g(F)=  0.000E+00 g(S)=  0.000E+00 dE (1.order)= 0.000E+00
 bond charge predicted
       N       E                     dE             d eps       ncg     rms          rms(c)
DAV:   1    -0.177542076696E+02   -0.59356E-03   -0.22277E-01    32   0.261E+00    0.145E-01
DAV:   2    -0.177543644920E+02   -0.15682E-03   -0.27395E-03    40   0.290E-01    0.865E-02
DAV:   3    -0.177542838386E+02    0.80653E-04   -0.37166E-04    56   0.761E-02    0.241E-02
DAV:   4    -0.177542757362E+02    0.81024E-05   -0.73925E-05    48   0.321E-02
  28 F= -.17754276E+02 E0= -.17754276E+02  d E =-.660932E-03
quench:  g(F)=  0.000E+00 g(S)=  0.000E+00 dE (1.order)= 0.000E+00
 bond charge predicted
       N       E                     dE             d eps       ncg     rms          rms(c)
DAV:   1    -0.177538123255E+02    0.47151E-03   -0.23304E-01    32   0.266E+00    0.151E-01
DAV:   2    -0.177539233393E+02   -0.11101E-03   -0.29991E-03    40   0.294E-01    0.881E-02
DAV:   3    -0.177538463442E+02    0.76995E-04   -0.40137E-04    56   0.887E-02    0.183E-02
DAV:   4    -0.177538458843E+02    0.45990E-06   -0.53722E-05    48   0.302E-02
  29 F= -.17753846E+02 E0= -.17753846E+02  d E =0.429852E-03
quench:  g(F)=  0.000E+00 g(S)=  0.000E+00 dE (1.order)= 0.000E+00
 bond charge predicted
       N       E                     dE             d eps       ncg     rms          rms(c)
DAV:   1    -0.177537932692E+02    0.53075E-04   -0.32776E-02    32   0.998E-01    0.616E-02
DAV:   2    -0.177537914558E+02    0.18134E-05   -0.43722E-04    40   0.103E-01    0.356E-02
DAV:   3    -0.177537802814E+02    0.11174E-04   -0.68619E-05    48   0.303E-02    0.956E-03
DAV:   4    -0.177537803673E+02   -0.85838E-07   -0.86327E-06    32   0.129E-02
  30 F= -.17753780E+02 E0= -.17753780E+02  d E =0.655171E-04
quench:  g(F)=  0.000E+00 g(S)=  0.000E+00 dE (1.order)= 0.000E+00
 bond charge predicted
       N       E                     dE             d eps       ncg     rms          rms(c)
DAV:   1    -0.177539655924E+02   -0.18531E-03   -0.21531E-02    32   0.807E-01    0.402E-02
DAV:   2    -0.177539802003E+02   -0.14608E-04   -0.30440E-04    56   0.958E-02    0.252E-02
DAV:   3    -0.177539741878E+02    0.60125E-05   -0.35750E-05    40   0.288E-02
  31 F= -.17753974E+02 E0= -.17753974E+02  d E =-.193821E-03
quench:  g(F)=  0.000E+00 g(S)=  0.000E+00 dE (1.order)= 0.000E+00
 bond charge predicted
       N       E                     dE             d eps       ncg     rms          rms(c)
DAV:   1    -0.177531841889E+02    0.79601E-03   -0.59649E-02    48   0.130E+00    0.723E-02
DAV:   2    -0.177531227298E+02    0.61459E-04   -0.78103E-04    48   0.150E-01    0.423E-02
DAV:   3    -0.177530842335E+02    0.38496E-04   -0.29114E-04    48   0.737E-02    0.989E-03
DAV:   4    -0.177530856378E+02   -0.14044E-05   -0.15193E-05    40   0.184E-02
  32 F= -.17753086E+02 E0= -.17753086E+02  d E =0.888550E-03
quench:  g(F)=  0.000E+00 g(S)=  0.000E+00 dE (1.order)= 0.000E+00
 bond charge predicted
       N       E                     dE             d eps       ncg     rms          rms(c)
DAV:   1    -0.177146150930E+02    0.38469E-01   -0.27583E+00    40   0.950E+00    0.574E-01
DAV:   2    -0.177107548748E+02    0.38602E-02   -0.57662E-02    48   0.118E+00    0.313E-01
DAV:   3    -0.177093267481E+02    0.14281E-02   -0.94084E-03    56   0.394E-01    0.127E-01
DAV:   4    -0.177092240012E+02    0.10275E-03   -0.16310E-03    32   0.183E-01    0.529E-02
DAV:   5    -0.177092747594E+02   -0.50758E-04   -0.21947E-04    32   0.627E-02    0.193E-02
DAV:   6    -0.177093257805E+02   -0.51021E-04   -0.30131E-05    40   0.279E-02    0.542E-03
DAV:   7    -0.177093592319E+02   -0.33451E-04   -0.81639E-06    32   0.113E-02    0.291E-03
DAV:   8    -0.177094068121E+02   -0.47580E-04   -0.10271E-05    40   0.127E-02    0.145E-03
DAV:   9    -0.177094455970E+02   -0.38785E-04   -0.85856E-06    40   0.103E-02    0.946E-04
DAV:  10    -0.177094599579E+02   -0.14361E-04   -0.42005E-06    40   0.666E-03    0.676E-04
DAV:  11    -0.177094702451E+02   -0.10287E-04   -0.68617E-07    40   0.274E-03    0.243E-04
DAV:  12    -0.177094731942E+02   -0.29491E-05   -0.55960E-08    48   0.112E-03
  33 F= -.17709473E+02 E0= -.17709473E+02  d E =0.436124E-01
quench:  g(F)=  0.000E+00 g(S)=  0.000E+00 dE (1.order)= 0.000E+00
 bond charge predicted
       N       E                     dE             d eps       ncg     rms          rms(c)
DAV:   1    -0.177431513064E+02   -0.33681E-01   -0.96104E-01    32   0.553E+00    0.336E-01
DAV:   2    -0.177417386656E+02    0.14126E-02   -0.15338E-02    48   0.646E-01    0.191E-01
DAV:   3    -0.177410132994E+02    0.72537E-03   -0.36824E-03    40   0.278E-01    0.496E-02
DAV:   4    -0.177410262027E+02   -0.12903E-04   -0.16253E-04    32   0.631E-02    0.247E-02
DAV:   5    -0.177410476651E+02   -0.21462E-04   -0.40011E-05    32   0.255E-02    0.757E-03
DAV:   6    -0.177410614419E+02   -0.13777E-04   -0.55220E-06    40   0.113E-02    0.247E-03
DAV:   7    -0.177410816415E+02   -0.20200E-04   -0.21637E-06    40   0.572E-03    0.117E-03
DAV:   8    -0.177410952392E+02   -0.13598E-04   -0.80124E-07    40   0.338E-03    0.632E-04
DAV:   9    -0.177411171970E+02   -0.21958E-04   -0.24283E-06    40   0.528E-03    0.371E-04
DAV:  10    -0.177411247608E+02   -0.75638E-05   -0.51256E-07    32   0.281E-03
  34 F= -.17741125E+02 E0= -.17741125E+02  d E =-.316516E-01
quench:  g(F)=  0.000E+00 g(S)=  0.000E+00 dE (1.order)= 0.000E+00
 bond charge predicted
       N       E                     dE             d eps       ncg     rms          rms(c)
DAV:   1    -0.176386208600E+02    0.10250E+00   -0.16126E+01    48   0.218E+01    0.119E+00
DAV:   2    -0.176237155187E+02    0.14905E-01   -0.30086E-01    32   0.270E+00    0.690E-01
DAV:   3    -0.176171712995E+02    0.65442E-02   -0.44119E-02    56   0.927E-01    0.205E-01
DAV:   4    -0.176172610982E+02   -0.89799E-04   -0.30346E-03    40   0.284E-01    0.911E-02
DAV:   5    -0.176174030164E+02   -0.14192E-03   -0.32154E-04    32   0.854E-02    0.184E-02
DAV:   6    -0.176176186842E+02   -0.21567E-03   -0.36528E-05    40   0.278E-02    0.876E-03
DAV:   7    -0.176180121599E+02   -0.39348E-03   -0.46038E-05    40   0.271E-02    0.401E-03
DAV:   8    -0.176183601795E+02   -0.34802E-03   -0.40452E-05    40   0.217E-02    0.282E-03
DAV:   9    -0.176187680863E+02   -0.40791E-03   -0.10096E-04    40   0.316E-02    0.193E-03
DAV:  10    -0.176188777539E+02   -0.10967E-03   -0.12074E-05    56   0.144E-02    0.103E-03
DAV:  11    -0.176189111897E+02   -0.33436E-04   -0.21037E-06    32   0.694E-03    0.662E-04
DAV:  12    -0.176189358329E+02   -0.24643E-04   -0.12122E-06    40   0.432E-03    0.348E-04
DAV:  13    -0.176189443820E+02   -0.85491E-05   -0.24254E-07    48   0.178E-03
  35 F= -.17618944E+02 E0= -.17618944E+02  d E =0.122180E+00
quench:  g(F)=  0.000E+00 g(S)=  0.000E+00 dE (1.order)= 0.000E+00
 bond charge predicted
       N       E                     dE             d eps       ncg     rms          rms(c)
DAV:   1    -0.177666300813E+02   -0.14769E+00   -0.79430E+00    48   0.153E+01    0.895E-01
DAV:   2    -0.177579362064E+02    0.86939E-02   -0.16362E-01    48   0.200E+00    0.507E-01
DAV:   3    -0.177544033095E+02    0.35329E-02   -0.18661E-02    56   0.557E-01    0.191E-01
DAV:   4    -0.177543796532E+02    0.23656E-04   -0.28015E-03    32   0.254E-01    0.724E-02
DAV:   5    -0.177545483788E+02   -0.16873E-03   -0.43041E-04    32   0.909E-02    0.262E-02
DAV:   6    -0.177547159907E+02   -0.16761E-03   -0.65215E-05    40   0.423E-02    0.804E-03
DAV:   7    -0.177548668298E+02   -0.15084E-03   -0.25343E-05    32   0.209E-02    0.445E-03
DAV:   8    -0.177550319293E+02   -0.16510E-03   -0.28005E-05    40   0.209E-02    0.272E-03
DAV:   9    -0.177552193804E+02   -0.18745E-03   -0.57872E-05    40   0.266E-02    0.188E-03
DAV:  10    -0.177552538953E+02   -0.34515E-04   -0.50968E-06    56   0.726E-03    0.116E-03
DAV:  11    -0.177552947039E+02   -0.40809E-04   -0.16975E-06    40   0.505E-03    0.478E-04
DAV:  12    -0.177553093074E+02   -0.14604E-04   -0.29115E-07    48   0.268E-03    0.335E-04
DAV:  13    -0.177553195191E+02   -0.10212E-04   -0.42419E-07    32   0.280E-03    0.151E-04
DAV:  14    -0.177553231200E+02   -0.36009E-05   -0.14533E-07    40   0.152E-03
  36 F= -.17755323E+02 E0= -.17755323E+02  d E =-.136379E+00
quench:  g(F)=  0.000E+00 g(S)=  0.000E+00 dE (1.order)= 0.000E+00
 bond charge predicted
       N       E                     dE             d eps       ncg     rms          rms(c)
DAV:   1    -0.176677710713E+02    0.87548E-01   -0.11688E+01    32   0.192E+01    0.101E+00
DAV:   2    -0.176708751205E+02   -0.31040E-02   -0.16665E-01    48   0.224E+00    0.611E-01
DAV:   3    -0.176662478945E+02    0.46272E-02   -0.33442E-02    40   0.782E-01    0.138E-01
DAV:   4    -0.176660649998E+02    0.18289E-03   -0.12555E-03    56   0.162E-01    0.768E-02
DAV:   5    -0.176660218600E+02    0.43140E-04   -0.44788E-04    40   0.893E-02    0.155E-02
DAV:   6    -0.176660922637E+02   -0.70404E-04   -0.21465E-05    32   0.219E-02    0.590E-03
DAV:   7    -0.176662085127E+02   -0.11625E-03   -0.13036E-05    40   0.140E-02    0.276E-03
DAV:   8    -0.176663493330E+02   -0.14082E-03   -0.19150E-05    40   0.145E-02    0.206E-03
DAV:   9    -0.176664573354E+02   -0.10800E-03   -0.17614E-05    56   0.132E-02    0.113E-03
DAV:  10    -0.176665187650E+02   -0.61430E-04   -0.67499E-06    40   0.807E-03    0.575E-04
DAV:  11    -0.176665440365E+02   -0.25271E-04   -0.13183E-06    32   0.397E-03    0.379E-04
DAV:  12    -0.176665557560E+02   -0.11719E-04   -0.37417E-07    32   0.274E-03    0.190E-04
DAV:  13    -0.176665575723E+02   -0.18163E-05   -0.30665E-08    40   0.101E-03
  37 F= -.17666558E+02 E0= -.17666558E+02  d E =0.887655E-01
quench:  g(F)=  0.000E+00 g(S)=  0.000E+00 dE (1.order)= 0.000E+00
 bond charge predicted
       N       E                     dE             d eps       ncg     rms          rms(c)
DAV:   1    -0.177653910424E+02   -0.98835E-01   -0.72171E+00    32   0.153E+01    0.906E-01
DAV:   2    -0.177567879800E+02    0.86031E-02   -0.11051E-01    48   0.171E+00    0.496E-01
DAV:   3    -0.177530306602E+02    0.37573E-02   -0.24707E-02    56   0.639E-01    0.166E-01
DAV:   4    -0.177529154223E+02    0.11524E-03   -0.23691E-03    40   0.212E-01    0.727E-02
DAV:   5    -0.177528861028E+02    0.29319E-04   -0.30046E-04    56   0.714E-02    0.262E-02
DAV:   6    -0.177528854609E+02    0.64190E-06   -0.31091E-05    40   0.432E-02
  38 F= -.17752885E+02 E0= -.17752885E+02  d E =-.863279E-01
quench:  g(F)=  0.000E+00 g(S)=  0.000E+00 dE (1.order)= 0.000E+00
 bond charge predicted
       N       E                     dE             d eps       ncg     rms          rms(c)
DAV:   1    -0.177534469798E+02   -0.56088E-03   -0.73654E-02    40   0.150E+00    0.801E-02
DAV:   2    -0.177534945389E+02   -0.47559E-04   -0.91527E-04    40   0.165E-01    0.469E-02
DAV:   3    -0.177534757195E+02    0.18819E-04   -0.12475E-04    48   0.505E-02    0.991E-03
DAV:   4    -0.177534875893E+02   -0.11870E-04   -0.19510E-05    40   0.195E-02    0.507E-03
DAV:   5    -0.177534984841E+02   -0.10895E-04   -0.22365E-06    40   0.602E-03    0.263E-03
DAV:   6    -0.177535169278E+02   -0.18444E-04   -0.18138E-06    56   0.515E-03    0.875E-04
DAV:   7    -0.177535335040E+02   -0.16576E-04   -0.12348E-06    40   0.342E-03    0.591E-04
DAV:   8    -0.177535533892E+02   -0.19885E-04   -0.35167E-06    56   0.534E-03    0.441E-04
DAV:   9    -0.177535587606E+02   -0.53714E-05   -0.78947E-07    40   0.259E-03
  39 F= -.17753559E+02 E0= -.17753559E+02  d E =-.673300E-03
quench:  g(F)=  0.000E+00 g(S)=  0.000E+00 dE (1.order)= 0.000E+00
 bond charge predicted
       N       E                     dE             d eps       ncg     rms          rms(c)
DAV:   1    -0.177644504697E+02   -0.10897E-01   -0.33407E+00    32   0.995E+00    0.633E-01
DAV:   2    -0.177627533185E+02    0.16972E-02   -0.38644E-02    48   0.101E+00    0.360E-01
DAV:   3    -0.177608722132E+02    0.18811E-02   -0.89047E-03    56   0.387E-01    0.619E-02
DAV:   4    -0.177608481401E+02    0.24073E-04   -0.32883E-04    40   0.940E-02    0.321E-02
DAV:   5    -0.177608674270E+02   -0.19287E-04   -0.94890E-05    40   0.447E-02    0.731E-03
DAV:   6    -0.177609007555E+02   -0.33329E-04   -0.89059E-06    32   0.132E-02    0.311E-03
DAV:   7    -0.177609520713E+02   -0.51316E-04   -0.46498E-06    56   0.735E-03    0.194E-03
DAV:   8    -0.177610393757E+02   -0.87304E-04   -0.13234E-05    32   0.109E-02    0.100E-03
DAV:   9    -0.177610828920E+02   -0.43516E-04   -0.48623E-06    56   0.622E-03    0.738E-04
DAV:  10    -0.177611184528E+02   -0.35561E-04   -0.39287E-06    32   0.638E-03    0.637E-04
DAV:  11    -0.177611273106E+02   -0.88578E-05   -0.42055E-07    48   0.258E-03
  40 F= -.17761127E+02 E0= -.17761127E+02  d E =-.756855E-02
quench:  g(F)=  0.000E+00 g(S)=  0.000E+00 dE (1.order)= 0.000E+00
 bond charge predicted
       N       E                     dE             d eps       ncg     rms          rms(c)
DAV:   1    -0.177489041561E+02    0.12214E-01   -0.59452E+00    48   0.130E+01    0.879E-01
DAV:   2    -0.177414931414E+02    0.74110E-02   -0.70076E-02    48   0.124E+00    0.483E-01
DAV:   3    -0.177385591493E+02    0.29340E-02   -0.17157E-02    56   0.459E-01    0.101E-01
DAV:   4    -0.177385337505E+02    0.25399E-04   -0.13944E-03    40   0.156E-01    0.498E-02
DAV:   5    -0.177386096210E+02   -0.75870E-04   -0.21439E-04    32   0.642E-02    0.155E-02
DAV:   6    -0.177386820725E+02   -0.72452E-04   -0.31756E-05    48   0.266E-02    0.531E-03
DAV:   7    -0.177387878203E+02   -0.10575E-03   -0.19594E-05    40   0.165E-02    0.259E-03
DAV:   8    -0.177388721833E+02   -0.84363E-04   -0.13814E-05    56   0.122E-02    0.189E-03
DAV:   9    -0.177389569663E+02   -0.84783E-04   -0.26416E-05    40   0.154E-02    0.983E-04
DAV:  10    -0.177389826718E+02   -0.25706E-04   -0.27158E-06    64   0.493E-03    0.628E-04
DAV:  11    -0.177390028731E+02   -0.20201E-04   -0.19950E-06    32   0.448E-03    0.318E-04
DAV:  12    -0.177390107894E+02   -0.79163E-05   -0.31531E-07    48   0.249E-03
  41 F= -.17739011E+02 E0= -.17739011E+02  d E =0.221165E-01
quench:  g(F)=  0.000E+00 g(S)=  0.000E+00 dE (1.order)= 0.000E+00
 bond charge predicted
       N       E                     dE             d eps       ncg     rms          rms(c)
DAV:   1    -0.177567906966E+02   -0.17788E-01   -0.26995E+00    32   0.914E+00    0.498E-01
DAV:   2    -0.177565459265E+02    0.24477E-03   -0.38452E-02    56   0.106E+00    0.303E-01
DAV:   3    -0.177553536166E+02    0.11923E-02   -0.74761E-03    40   0.403E-01    0.729E-02
DAV:   4    -0.177553558424E+02   -0.22258E-05   -0.89461E-04    40   0.132E-01    0.359E-02
DAV:   5    -0.177553631372E+02   -0.72948E-05   -0.97390E-05    40   0.440E-02
  42 F= -.17755363E+02 E0= -.17755363E+02  d E =-.163523E-01
quench:  g(F)=  0.000E+00 g(S)=  0.000E+00 dE (1.order)= 0.000E+00
 bond charge predicted
       N       E                     dE             d eps       ncg     rms          rms(c)
DAV:   1    -0.177532759292E+02    0.20799E-02   -0.20285E+00    40   0.739E+00    0.516E-01
DAV:   2    -0.177500884986E+02    0.31874E-02   -0.27025E-02    56   0.755E-01    0.284E-01
DAV:   3    -0.177489298264E+02    0.11587E-02   -0.60098E-03    48   0.287E-01    0.793E-02
DAV:   4    -0.177489304575E+02   -0.63110E-06   -0.49394E-04    32   0.977E-02    0.314E-02
DAV:   5    -0.177490058391E+02   -0.75382E-04   -0.98475E-05    40   0.442E-02    0.103E-02
DAV:   6    -0.177490534817E+02   -0.47643E-04   -0.14158E-05    48   0.163E-02    0.300E-03
DAV:   7    -0.177491067722E+02   -0.53291E-04   -0.58719E-06    40   0.937E-03    0.151E-03
DAV:   8    -0.177491582198E+02   -0.51448E-04   -0.66221E-06    40   0.890E-03    0.928E-04
DAV:   9    -0.177492012842E+02   -0.43064E-04   -0.10649E-05    40   0.103E-02    0.803E-04
DAV:  10    -0.177492123412E+02   -0.11057E-04   -0.63287E-07    56   0.271E-03    0.380E-04
DAV:  11    -0.177492223731E+02   -0.10032E-04   -0.33050E-07    32   0.220E-03    0.177E-04
DAV:  12    -0.177492250689E+02   -0.26958E-05   -0.65141E-08    48   0.127E-03
  43 F= -.17749225E+02 E0= -.17749225E+02  d E =0.613807E-02
quench:  g(F)=  0.000E+00 g(S)=  0.000E+00 dE (1.order)= 0.000E+00
 bond charge predicted
       N       E                     dE             d eps       ncg     rms          rms(c)
DAV:   1    -0.177861568545E+02   -0.36934E-01   -0.14146E+01    32   0.204E+01    0.131E+00
DAV:   2    -0.177801458265E+02    0.60110E-02   -0.17073E-01    56   0.212E+00    0.745E-01
DAV:   3    -0.177735777188E+02    0.65681E-02   -0.32905E-02    40   0.714E-01    0.141E-01
DAV:   4    -0.177734406901E+02    0.13703E-03   -0.13831E-03    48   0.181E-01    0.675E-02
DAV:   5    -0.177733677800E+02    0.72910E-04   -0.30901E-04    32   0.766E-02    0.267E-02
DAV:   6    -0.177734801652E+02   -0.11239E-03   -0.80973E-05    32   0.405E-02    0.786E-03
DAV:   7    -0.177736783403E+02   -0.19818E-03   -0.25901E-05    32   0.197E-02    0.432E-03
DAV:   8    -0.177739452059E+02   -0.26687E-03   -0.38031E-05    40   0.196E-02    0.303E-03
DAV:   9    -0.177741789118E+02   -0.23371E-03   -0.33524E-05    48   0.181E-02    0.164E-03
DAV:  10    -0.177743005567E+02   -0.12164E-03   -0.13612E-05    40   0.115E-02    0.103E-03
DAV:  11    -0.177743567659E+02   -0.56209E-04   -0.46470E-06    32   0.857E-03    0.577E-04
DAV:  12    -0.177743769681E+02   -0.20202E-04   -0.12083E-06    32   0.497E-03    0.429E-04
DAV:  13    -0.177743873660E+02   -0.10398E-04   -0.79942E-07    32   0.313E-03    0.202E-04
DAV:  14    -0.177743902315E+02   -0.28655E-05   -0.10007E-07    32   0.108E-03
  44 F= -.17774390E+02 E0= -.17774390E+02  d E =-.251652E-01
quench:  g(F)=  0.000E+00 g(S)=  0.000E+00 dE (1.order)= 0.000E+00
 bond charge predicted
       N       E                     dE             d eps       ncg     rms          rms(c)
DAV:   1    -0.177591142843E+02    0.15273E-01   -0.32655E+00    48   0.963E+00    0.680E-01
DAV:   2    -0.177539156084E+02    0.51987E-02   -0.41437E-02    40   0.937E-01    0.363E-01
DAV:   3    -0.177518513807E+02    0.20642E-02   -0.10855E-02    56   0.360E-01    0.727E-02
DAV:   4    -0.177518692790E+02   -0.17898E-04   -0.75643E-04    32   0.123E-01    0.377E-02
DAV:   5    -0.177519340148E+02   -0.64736E-04   -0.15202E-04    40   0.515E-02    0.113E-02
DAV:   6    -0.177519820362E+02   -0.48021E-04   -0.13109E-05    32   0.186E-02    0.486E-03
DAV:   7    -0.177520621953E+02   -0.80159E-04   -0.16232E-05    40   0.146E-02    0.229E-03
DAV:   8    -0.177521045540E+02   -0.42359E-04   -0.42414E-06    56   0.703E-03    0.159E-03
DAV:   9    -0.177521806416E+02   -0.76088E-04   -0.25417E-05    40   0.152E-02    0.946E-04
DAV:  10    -0.177521942514E+02   -0.13610E-04   -0.10118E-06    56   0.309E-03    0.706E-04
DAV:  11    -0.177522112094E+02   -0.16958E-04   -0.19654E-06    32   0.451E-03    0.285E-04
DAV:  12    -0.177522154359E+02   -0.42265E-05   -0.17970E-07    48   0.211E-03
  45 F= -.17752215E+02 E0= -.17752215E+02  d E =0.221748E-01
quench:  g(F)=  0.000E+00 g(S)=  0.000E+00 dE (1.order)= 0.000E+00
 bond charge predicted
       N       E                     dE             d eps       ncg     rms          rms(c)
DAV:   1    -0.144938983920E+02    0.32583E+01   -0.35783E+02    32   0.101E+02    0.598E+00
DAV:   2    -0.142090392395E+02    0.28486E+00   -0.70375E+00    56   0.123E+01    0.248E+00
DAV:   3    -0.141572663023E+02    0.51773E-01   -0.35734E-01    64   0.252E+00    0.107E+00
DAV:   4    -0.141661640259E+02   -0.88977E-02   -0.10524E-01    40   0.110E+00    0.565E-01
DAV:   5    -0.141636669612E+02    0.24971E-02   -0.71933E-02    56   0.733E-01    0.247E-01
DAV:   6    -0.141635721928E+02    0.94768E-04   -0.57031E-03    48   0.299E-01    0.435E-02
DAV:   7    -0.141637797285E+02   -0.20754E-03   -0.46454E-04    56   0.108E-01    0.212E-02
DAV:   8    -0.141640515733E+02   -0.27184E-03   -0.11966E-04    48   0.501E-02    0.111E-02
DAV:   9    -0.141645019977E+02   -0.45042E-03   -0.16604E-04    48   0.534E-02    0.703E-03
DAV:  10    -0.141650606465E+02   -0.55865E-03   -0.26773E-04    40   0.558E-02    0.393E-03
DAV:  11    -0.141653153740E+02   -0.25473E-03   -0.31569E-05    56   0.176E-02    0.218E-03
DAV:  12    -0.141655104453E+02   -0.19507E-03   -0.17256E-05    40   0.147E-02    0.130E-03
DAV:  13    -0.141655995376E+02   -0.89092E-04   -0.60167E-06    56   0.103E-02    0.722E-04
DAV:  14    -0.141656486871E+02   -0.49149E-04   -0.36612E-06    32   0.815E-03    0.389E-04
DAV:  15    -0.141656657245E+02   -0.17037E-04   -0.86089E-07    32   0.449E-03    0.247E-04
DAV:  16    -0.141656714414E+02   -0.57169E-05   -0.24285E-07    32   0.290E-03
  46 F= -.14165671E+02 E0= -.14165671E+02  d E =0.358654E+01
quench:  g(F)=  0.000E+00 g(S)=  0.000E+00 dE (1.order)= 0.000E+00
 bond charge predicted
       N       E                     dE             d eps       ncg     rms          rms(c)
DAV:   1    -0.137327556597E+02    0.43291E+00   -0.21905E+01    40   0.247E+01    0.194E+00
DAV:   2    -0.138007362943E+02   -0.67981E-01   -0.23788E+00    64   0.431E+00    0.234E+00
DAV:   3    -0.137104176509E+02    0.90319E-01   -0.86567E-01    48   0.232E+00    0.597E-01
DAV:   4    -0.137100513241E+02    0.36633E-03   -0.25225E-02    32   0.707E-01    0.160E-01
DAV:   5    -0.137100167641E+02    0.34560E-04   -0.13085E-03    48   0.182E-01    0.591E-02
DAV:   6    -0.137101254350E+02   -0.10867E-03   -0.33010E-04    40   0.767E-02    0.152E-02
DAV:   7    -0.137101945402E+02   -0.69105E-04   -0.29180E-05    40   0.250E-02    0.724E-03
DAV:   8    -0.137102669780E+02   -0.72438E-04   -0.15826E-05    40   0.147E-02    0.169E-03
DAV:   9    -0.137102889150E+02   -0.21937E-04   -0.15090E-06    64   0.467E-03    0.113E-03
DAV:  10    -0.137103178932E+02   -0.28978E-04   -0.34263E-06    40   0.614E-03    0.547E-04
DAV:  11    -0.137103356148E+02   -0.17722E-04   -0.24649E-06    48   0.492E-03    0.313E-04
DAV:  12    -0.137103426186E+02   -0.70038E-05   -0.59715E-07    40   0.255E-03
  47 F= -.13710343E+02 E0= -.13710343E+02  d E =0.455329E+00
quench:  g(F)=  0.000E+00 g(S)=  0.000E+00 dE (1.order)= 0.000E+00
 bond charge predicted
       N       E                     dE             d eps       ncg     rms          rms(c)
DAV:   1    -0.142222629352E+02   -0.51193E+00   -0.48007E+00    40   0.114E+01    0.637E-01
DAV:   2    -0.142253572707E+02   -0.30943E-02   -0.14660E-01    48   0.141E+00    0.525E-01
DAV:   3    -0.142217681310E+02    0.35891E-02   -0.51811E-02    48   0.572E-01    0.249E-01
DAV:   4    -0.142205284191E+02    0.12397E-02   -0.91482E-03    48   0.323E-01    0.586E-02
DAV:   5    -0.142205567312E+02   -0.28312E-04   -0.26020E-04    32   0.812E-02    0.334E-02
DAV:   6    -0.142206100158E+02   -0.53285E-04   -0.75884E-05    32   0.415E-02    0.600E-03
DAV:   7    -0.142206475576E+02   -0.37542E-04   -0.72212E-06    56   0.113E-02    0.303E-03
DAV:   8    -0.142207132153E+02   -0.65658E-04   -0.83564E-06    40   0.970E-03    0.139E-03
DAV:   9    -0.142207455111E+02   -0.32296E-04   -0.17813E-06    48   0.448E-03    0.877E-04
DAV:  10    -0.142207939163E+02   -0.48405E-04   -0.70377E-06    40   0.845E-03    0.510E-04
DAV:  11    -0.142208119050E+02   -0.17989E-04   -0.12613E-06    40   0.379E-03    0.289E-04
DAV:  12    -0.142208211118E+02   -0.92068E-05   -0.37427E-07    32   0.249E-03
  48 F= -.14220821E+02 E0= -.14220821E+02  d E =-.510478E+00
quench:  g(F)=  0.000E+00 g(S)=  0.000E+00 dE (1.order)= 0.000E+00
 bond charge predicted
       N       E                     dE             d eps       ncg     rms          rms(c)
DAV:   1    -0.158292484222E+02   -0.16084E+01   -0.44123E+01    40   0.345E+01    0.175E+00
DAV:   2    -0.158597173337E+02   -0.30469E-01   -0.80619E-01    56   0.427E+00    0.111E+00
DAV:   3    -0.158429325401E+02    0.16785E-01   -0.15303E-01    48   0.116E+00    0.636E-01
DAV:   4    -0.158369148769E+02    0.60177E-02   -0.81829E-02    56   0.889E-01    0.214E-01
DAV:   5    -0.158364582877E+02    0.45659E-03   -0.56419E-03    32   0.248E-01    0.104E-01
DAV:   6    -0.158367192934E+02   -0.26101E-03   -0.91801E-04    32   0.146E-01    0.217E-02
DAV:   7    -0.158369112427E+02   -0.19195E-03   -0.75413E-05    56   0.361E-02    0.102E-02
DAV:   8    -0.158372850411E+02   -0.37380E-03   -0.55145E-05    40   0.269E-02    0.425E-03
DAV:   9    -0.158374138375E+02   -0.12880E-03   -0.74956E-06    48   0.940E-03    0.253E-03
DAV:  10    -0.158376855587E+02   -0.27172E-03   -0.36507E-05    48   0.204E-02    0.140E-03
DAV:  11    -0.158377620416E+02   -0.76483E-04   -0.64364E-06    40   0.927E-03    0.858E-04
DAV:  12    -0.158378147250E+02   -0.52683E-04   -0.44568E-06    32   0.776E-03    0.457E-04
DAV:  13    -0.158378349489E+02   -0.20224E-04   -0.17640E-06    32   0.430E-03    0.284E-04
DAV:  14    -0.158378396526E+02   -0.47037E-05   -0.12512E-07    32   0.119E-03
  49 F= -.15837840E+02 E0= -.15837840E+02  d E =-.161702E+01
quench:  g(F)=  0.000E+00 g(S)=  0.000E+00 dE (1.order)= 0.000E+00
 bond charge predicted
       N       E                     dE             d eps       ncg     rms          rms(c)
DAV:   1    -0.176858563874E+02   -0.18480E+01   -0.98145E+01    48   0.521E+01    0.287E+00
DAV:   2    -0.176786244490E+02    0.72319E-02   -0.16582E+00    48   0.704E+00    0.181E+00
DAV:   3    -0.176032623357E+02    0.75362E-01   -0.34715E-01    48   0.247E+00    0.492E-01
DAV:   4    -0.176027021883E+02    0.56015E-03   -0.35423E-02    40   0.738E-01    0.263E-01
DAV:   5    -0.176023211024E+02    0.38109E-03   -0.61269E-03    32   0.289E-01    0.134E-01
DAV:   6    -0.176031172082E+02   -0.79611E-03   -0.11194E-03    40   0.167E-01    0.247E-02
DAV:   7    -0.176036094304E+02   -0.49222E-03   -0.16280E-04    40   0.545E-02    0.126E-02
DAV:   8    -0.176041292171E+02   -0.51979E-03   -0.59112E-05    40   0.295E-02    0.635E-03
DAV:   9    -0.176046887090E+02   -0.55949E-03   -0.87491E-05    40   0.353E-02    0.353E-03
DAV:  10    -0.176049539255E+02   -0.26522E-03   -0.43555E-05    40   0.257E-02    0.265E-03
DAV:  11    -0.176051190674E+02   -0.16514E-03   -0.23686E-05    32   0.188E-02    0.110E-03
DAV:  12    -0.176051804284E+02   -0.61361E-04   -0.56045E-06    32   0.791E-03    0.787E-04
DAV:  13    -0.176052026789E+02   -0.22250E-04   -0.14375E-06    32   0.376E-03    0.356E-04
DAV:  14    -0.176052124201E+02   -0.97413E-05   -0.22587E-07    32   0.155E-03
  50 F= -.17605212E+02 E0= -.17605212E+02  d E =-.176737E+01
quench:  g(F)=  0.000E+00 g(S)=  0.000E+00 dE (1.order)= 0.000E+00
 bond charge predicted
       N       E                     dE             d eps       ncg     rms          rms(c)
DAV:   1    -0.177265063764E+02   -0.12130E+00   -0.30026E+01    32   0.300E+01    0.215E+00
DAV:   2    -0.176453870812E+02    0.81119E-01   -0.76837E-01    48   0.397E+00    0.119E+00
DAV:   3    -0.176163356016E+02    0.29051E-01   -0.12168E-01    48   0.146E+00    0.495E-01
DAV:   4    -0.176125788055E+02    0.37568E-02   -0.30375E-02    40   0.786E-01    0.144E-01
DAV:   5    -0.176126633145E+02   -0.84509E-04   -0.29794E-03    32   0.248E-01    0.654E-02
DAV:   6    -0.176128963889E+02   -0.23307E-03   -0.27573E-04    48   0.931E-02    0.144E-02
DAV:   7    -0.176134315484E+02   -0.53516E-03   -0.80360E-05    40   0.376E-02    0.686E-03
DAV:   8    -0.176138120656E+02   -0.38052E-03   -0.32271E-05    40   0.209E-02    0.452E-03
DAV:   9    -0.176144741815E+02   -0.66212E-03   -0.13417E-04    40   0.384E-02    0.273E-03
DAV:  10    -0.176146193784E+02   -0.14520E-03   -0.20709E-05    48   0.154E-02    0.178E-03
DAV:  11    -0.176147234888E+02   -0.10411E-03   -0.92557E-06    32   0.121E-02    0.893E-04
DAV:  12    -0.176147694330E+02   -0.45944E-04   -0.49104E-06    32   0.764E-03    0.784E-04
DAV:  13    -0.176147826605E+02   -0.13227E-04   -0.39332E-07    32   0.229E-03    0.322E-04
DAV:  14    -0.176147905385E+02   -0.78780E-05   -0.18988E-07    32   0.153E-03
  51 F= -.17614791E+02 E0= -.17614791E+02  d E =-.957812E-02
quench:  g(F)=  0.000E+00 g(S)=  0.000E+00 dE (1.order)= 0.000E+00
 bond charge predicted
       N       E                     dE             d eps       ncg     rms          rms(c)
DAV:   1    -0.178605856529E+02   -0.24580E+00   -0.22351E+01    32   0.262E+01    0.194E+00
DAV:   2    -0.177840273155E+02    0.76558E-01   -0.59255E-01    48   0.322E+00    0.100E+00
DAV:   3    -0.177648943029E+02    0.19133E-01   -0.14389E-01    40   0.139E+00    0.467E-01
DAV:   4    -0.177614667649E+02    0.34275E-02   -0.30147E-02    32   0.715E-01    0.122E-01
DAV:   5    -0.177615611834E+02   -0.94419E-04   -0.88494E-04    40   0.166E-01    0.566E-02
DAV:   6    -0.177616560161E+02   -0.94833E-04   -0.21443E-04    32   0.713E-02    0.105E-02
DAV:   7    -0.177617038131E+02   -0.47797E-04   -0.23025E-05    56   0.204E-02    0.551E-03
DAV:   8    -0.177617680839E+02   -0.64271E-04   -0.19720E-05    32   0.165E-02    0.308E-03
DAV:   9    -0.177618505335E+02   -0.82450E-04   -0.28882E-05    48   0.172E-02    0.217E-03
DAV:  10    -0.177618795377E+02   -0.29004E-04   -0.60019E-06    40   0.733E-03    0.114E-03
DAV:  11    -0.177619186941E+02   -0.39156E-04   -0.38053E-06    32   0.631E-03    0.617E-04
DAV:  12    -0.177619384675E+02   -0.19773E-04   -0.13054E-06    48   0.357E-03    0.446E-04
DAV:  13    -0.177619529847E+02   -0.14517E-04   -0.12082E-06    32   0.368E-03    0.176E-04
DAV:  14    -0.177619560533E+02   -0.30686E-05   -0.86612E-08    48   0.158E-03
  52 F= -.17761956E+02 E0= -.17761956E+02  d E =-.147166E+00
quench:  g(F)=  0.000E+00 g(S)=  0.000E+00 dE (1.order)= 0.000E+00
 bond charge predicted
       N       E                     dE             d eps       ncg     rms          rms(c)
DAV:   1    -0.178711715549E+02   -0.10922E+00   -0.22300E+00    32   0.827E+00    0.570E-01
DAV:   2    -0.178657873969E+02    0.53842E-02   -0.63723E-02    48   0.108E+00    0.315E-01
DAV:   3    -0.178639984120E+02    0.17890E-02   -0.99341E-03    48   0.384E-01    0.147E-01
DAV:   4    -0.178635243721E+02    0.47404E-03   -0.25663E-03    32   0.233E-01    0.407E-02
DAV:   5    -0.178635706391E+02   -0.46267E-04   -0.18186E-04    32   0.659E-02    0.182E-02
DAV:   6    -0.178636223474E+02   -0.51708E-04   -0.22164E-05    32   0.251E-02    0.410E-03
DAV:   7    -0.178636688987E+02   -0.46551E-04   -0.38662E-06    32   0.769E-03    0.215E-03
DAV:   8    -0.178637201520E+02   -0.51253E-04   -0.40348E-06    32   0.693E-03    0.132E-03
DAV:   9    -0.178637667616E+02   -0.46610E-04   -0.34327E-06    32   0.616E-03    0.866E-04
DAV:  10    -0.178638071216E+02   -0.40360E-04   -0.46567E-06    32   0.740E-03    0.516E-04
DAV:  11    -0.178638203696E+02   -0.13248E-04   -0.60327E-07    32   0.333E-03    0.278E-04
DAV:  12    -0.178638261048E+02   -0.57351E-05   -0.22565E-07    32   0.215E-03
  53 F= -.17863826E+02 E0= -.17863826E+02  d E =-.101870E+00
quench:  g(F)=  0.000E+00 g(S)=  0.000E+00 dE (1.order)= 0.000E+00
 bond charge predicted
       N       E                     dE             d eps       ncg     rms          rms(c)
DAV:   1    -0.179325958985E+02   -0.68776E-01   -0.27770E+00    32   0.933E+00    0.636E-01
DAV:   2    -0.179252553516E+02    0.73405E-02   -0.95268E-02    32   0.133E+00    0.346E-01
DAV:   3    -0.179235523129E+02    0.17030E-02   -0.10515E-02    56   0.436E-01    0.163E-01
DAV:   4    -0.179230217097E+02    0.53060E-03   -0.20379E-03    32   0.231E-01    0.435E-02
DAV:   5    -0.179230730678E+02   -0.51358E-04   -0.20986E-04    32   0.733E-02    0.155E-02
DAV:   6    -0.179231528724E+02   -0.79805E-04   -0.21812E-05    32   0.213E-02    0.473E-03
DAV:   7    -0.179232343975E+02   -0.81525E-04   -0.80590E-06    40   0.103E-02    0.268E-03
DAV:   8    -0.179233397583E+02   -0.10536E-03   -0.11577E-05    32   0.118E-02    0.151E-03
DAV:   9    -0.179234448763E+02   -0.10512E-03   -0.15112E-05    32   0.131E-02    0.118E-03
DAV:  10    -0.179234694888E+02   -0.24613E-04   -0.19046E-06    32   0.513E-03    0.506E-04
DAV:  11    -0.179234891676E+02   -0.19679E-04   -0.78453E-07    32   0.449E-03    0.270E-04
DAV:  12    -0.179234957601E+02   -0.65924E-05   -0.33865E-07    32   0.265E-03
  54 F= -.17923496E+02 E0= -.17923496E+02  d E =-.596697E-01
quench:  g(F)=  0.000E+00 g(S)=  0.000E+00 dE (1.order)= 0.000E+00
 bond charge predicted
       N       E                     dE             d eps       ncg     rms          rms(c)
DAV:   1    -0.179212662403E+02    0.22229E-02   -0.12859E+00    32   0.580E+00    0.403E-01
DAV:   2    -0.179181878615E+02    0.30784E-02   -0.23394E-02    48   0.700E-01    0.211E-01
DAV:   3    -0.179172225362E+02    0.96533E-03   -0.44981E-03    48   0.259E-01    0.607E-02
DAV:   4    -0.179172210024E+02    0.15338E-05   -0.57532E-04    40   0.105E-01    0.244E-02
DAV:   5    -0.179172614493E+02   -0.40447E-04   -0.70409E-05    32   0.355E-02    0.968E-03
DAV:   6    -0.179172986685E+02   -0.37219E-04   -0.10056E-05    32   0.152E-02    0.303E-03
DAV:   7    -0.179173434873E+02   -0.44819E-04   -0.56198E-06    32   0.840E-03    0.150E-03
DAV:   8    -0.179173729618E+02   -0.29475E-04   -0.21807E-06    40   0.486E-03    0.900E-04
DAV:   9    -0.179174245206E+02   -0.51559E-04   -0.10324E-05    32   0.102E-02    0.585E-04
DAV:  10    -0.179174341953E+02   -0.96746E-05   -0.47444E-07    56   0.242E-03
  55 F= -.17917434E+02 E0= -.17917434E+02  d E =0.606156E-02
quench:  g(F)=  0.000E+00 g(S)=  0.000E+00 dE (1.order)= 0.000E+00
 bond charge predicted
       N       E                     dE             d eps       ncg     rms          rms(c)
DAV:   1    -0.178026441562E+02    0.11478E+00   -0.56863E+00    48   0.124E+01    0.897E-01
DAV:   2    -0.177906348944E+02    0.12009E-01   -0.83371E-02    48   0.127E+00    0.460E-01
DAV:   3    -0.177865493569E+02    0.40855E-02   -0.20970E-02    56   0.532E-01    0.104E-01
DAV:   4    -0.177865729144E+02   -0.23558E-04   -0.18340E-03    32   0.195E-01    0.463E-02
DAV:   5    -0.177866965446E+02   -0.12363E-03   -0.23667E-04    32   0.659E-02    0.180E-02
DAV:   6    -0.177868057035E+02   -0.10916E-03   -0.29124E-05    48   0.266E-02    0.641E-03
DAV:   7    -0.177869428155E+02   -0.13711E-03   -0.22477E-05    32   0.176E-02    0.272E-03
DAV:   8    -0.177870607011E+02   -0.11789E-03   -0.18065E-05    56   0.135E-02    0.191E-03
DAV:   9    -0.177871812421E+02   -0.12054E-03   -0.37317E-05    40   0.189E-02    0.113E-03
DAV:  10    -0.177872077392E+02   -0.26497E-04   -0.15576E-06    56   0.490E-03    0.636E-04
DAV:  11    -0.177872239264E+02   -0.16187E-04   -0.10629E-06    32   0.403E-03    0.366E-04
DAV:  12    -0.177872320848E+02   -0.81584E-05   -0.40540E-07    32   0.289E-03
  56 F= -.17787232E+02 E0= -.17787232E+02  d E =0.130202E+00
quench:  g(F)=  0.000E+00 g(S)=  0.000E+00 dE (1.order)= 0.000E+00
 bond charge predicted
       N       E                     dE             d eps       ncg     rms          rms(c)
DAV:   1    -0.176585238042E+02    0.12870E+00   -0.99408E+00    48   0.169E+01    0.118E+00
DAV:   2    -0.176436953829E+02    0.14828E-01   -0.12613E-01    48   0.152E+00    0.615E-01
DAV:   3    -0.176390592759E+02    0.46361E-02   -0.23745E-02    64   0.565E-01    0.188E-01
DAV:   4    -0.176386131838E+02    0.44609E-03   -0.38085E-03    32   0.257E-01    0.597E-02
DAV:   5    -0.176387138718E+02   -0.10069E-03   -0.32464E-04    48   0.835E-02    0.243E-02
DAV:   6    -0.176388246205E+02   -0.11075E-03   -0.54023E-05    40   0.366E-02    0.613E-03
DAV:   7    -0.176389542441E+02   -0.12962E-03   -0.24454E-05    40   0.174E-02    0.431E-03
DAV:   8    -0.176391156112E+02   -0.16137E-03   -0.41496E-05    56   0.216E-02    0.244E-03
DAV:   9    -0.176392313476E+02   -0.11574E-03   -0.33602E-05    40   0.174E-02    0.133E-03
DAV:  10    -0.176392815621E+02   -0.50215E-04   -0.67185E-06    64   0.781E-03    0.771E-04
DAV:  11    -0.176393140822E+02   -0.32520E-04   -0.22620E-06    32   0.522E-03    0.443E-04
DAV:  12    -0.176393304540E+02   -0.16372E-04   -0.73299E-07    32   0.340E-03    0.379E-04
DAV:  13    -0.176393372088E+02   -0.67548E-05   -0.32273E-07    40   0.276E-03
  57 F= -.17639337E+02 E0= -.17639337E+02  d E =0.147895E+00
quench:  g(F)=  0.000E+00 g(S)=  0.000E+00 dE (1.order)= 0.000E+00
 bond charge predicted
       N       E                     dE             d eps       ncg     rms          rms(c)
DAV:   1    -0.176184476097E+02    0.20883E-01   -0.91229E+00    32   0.166E+01    0.102E+00
DAV:   2    -0.176144874285E+02    0.39602E-02   -0.12027E-01    56   0.167E+00    0.573E-01
DAV:   3    -0.176113177363E+02    0.31697E-02   -0.17496E-02    48   0.523E-01    0.159E-01
DAV:   4    -0.176110136933E+02    0.30404E-03   -0.26035E-03    48   0.212E-01    0.556E-02
DAV:   5    -0.176110267440E+02   -0.13051E-04   -0.23098E-04    40   0.680E-02    0.252E-02
DAV:   6    -0.176110775922E+02   -0.50848E-04   -0.46872E-05    40   0.366E-02    0.539E-03
DAV:   7    -0.176111498932E+02   -0.72301E-04   -0.14059E-05    48   0.133E-02    0.382E-03
DAV:   8    -0.176112667870E+02   -0.11689E-03   -0.22944E-05    40   0.156E-02    0.201E-03
DAV:   9    -0.176113781562E+02   -0.11137E-03   -0.30667E-05    48   0.164E-02    0.126E-03
DAV:  10    -0.176114149584E+02   -0.36802E-04   -0.35638E-06    40   0.568E-03    0.728E-04
DAV:  11    -0.176114477624E+02   -0.32804E-04   -0.22753E-06    40   0.511E-03    0.424E-04
DAV:  12    -0.176114656687E+02   -0.17906E-04   -0.63996E-07    32   0.349E-03    0.248E-04
DAV:  13    -0.176114709211E+02   -0.52523E-05   -0.28647E-07    32   0.274E-03
  58 F= -.17611471E+02 E0= -.17611471E+02  d E =0.278663E-01
quench:  g(F)=  0.000E+00 g(S)=  0.000E+00 dE (1.order)= 0.000E+00
 bond charge predicted
       N       E                     dE             d eps       ncg     rms          rms(c)
DAV:   1    -0.176817618524E+02   -0.70296E-01   -0.82878E+00    32   0.158E+01    0.793E-01
DAV:   2    -0.176868697915E+02   -0.51079E-02   -0.10868E-01    56   0.176E+00    0.482E-01
DAV:   3    -0.176851653540E+02    0.17044E-02   -0.11543E-02    40   0.464E-01    0.886E-02
DAV:   4    -0.176851353054E+02    0.30049E-04   -0.10348E-03    56   0.155E-01    0.486E-02
DAV:   5    -0.176851936550E+02   -0.58350E-04   -0.17025E-04    40   0.588E-02    0.151E-02
DAV:   6    -0.176852518085E+02   -0.58154E-04   -0.28864E-05    40   0.259E-02    0.472E-03
DAV:   7    -0.176853406508E+02   -0.88842E-04   -0.11025E-05    40   0.125E-02    0.271E-03
DAV:   8    -0.176854460430E+02   -0.10539E-03   -0.13315E-05    40   0.125E-02    0.171E-03
DAV:   9    -0.176855646133E+02   -0.11857E-03   -0.28341E-05    40   0.170E-02    0.979E-04
DAV:  10    -0.176856084364E+02   -0.43823E-04   -0.43530E-06    56   0.667E-03    0.673E-04
DAV:  11    -0.176856375867E+02   -0.29150E-04   -0.11293E-06    32   0.438E-03    0.345E-04
DAV:  12    -0.176856478845E+02   -0.10298E-04   -0.36360E-07    32   0.299E-03    0.208E-04
DAV:  13    -0.176856520271E+02   -0.41426E-05   -0.18542E-07    32   0.228E-03
  59 F= -.17685652E+02 E0= -.17685652E+02  d E =-.741811E-01
quench:  g(F)=  0.000E+00 g(S)=  0.000E+00 dE (1.order)= 0.000E+00
 bond charge predicted
       N       E                     dE             d eps       ncg     rms          rms(c)
DAV:   1    -0.177631328683E+02   -0.77485E-01   -0.46737E+00    48   0.114E+01    0.551E-01
DAV:   2    -0.177632844402E+02   -0.15157E-03   -0.66189E-02    56   0.137E+00    0.344E-01
DAV:   3    -0.177609697328E+02    0.23147E-02   -0.16386E-02    64   0.542E-01    0.801E-02
DAV:   4    -0.177609854801E+02   -0.15747E-04   -0.98075E-04    40   0.145E-01    0.433E-02
DAV:   5    -0.177610982989E+02   -0.11282E-03   -0.11280E-04    32   0.534E-02    0.830E-03
DAV:   6    -0.177611816943E+02   -0.83395E-04   -0.13383E-05    40   0.162E-02    0.334E-03
DAV:   7    -0.177613050665E+02   -0.12337E-03   -0.18906E-05    40   0.166E-02    0.171E-03
DAV:   8    -0.177613832503E+02   -0.78184E-04   -0.10464E-05    56   0.116E-02    0.116E-03
DAV:   9    -0.177614451308E+02   -0.61880E-04   -0.11438E-05    40   0.115E-02    0.689E-04
DAV:  10    -0.177614699157E+02   -0.24785E-04   -0.15084E-06    40   0.425E-03    0.395E-04
DAV:  11    -0.177614821978E+02   -0.12282E-04   -0.30377E-07    32   0.234E-03    0.237E-04
DAV:  12    -0.177614898662E+02   -0.76684E-05   -0.33332E-07    32   0.269E-03
  60 F= -.17761490E+02 E0= -.17761490E+02  d E =-.758378E-01
quench:  g(F)=  0.000E+00 g(S)=  0.000E+00 dE (1.order)= 0.000E+00
 bond charge predicted
       N       E                     dE             d eps       ncg     rms          rms(c)
DAV:   1    -0.177511492256E+02    0.10333E-01   -0.19146E+00    48   0.697E+00    0.472E-01
DAV:   2    -0.177476558785E+02    0.34933E-02   -0.25523E-02    48   0.777E-01    0.260E-01
DAV:   3    -0.177463130116E+02    0.13429E-02   -0.70170E-03    48   0.326E-01    0.638E-02
DAV:   4    -0.177463151431E+02   -0.21315E-05   -0.46006E-04    32   0.960E-02    0.303E-02
DAV:   5    -0.177463799804E+02   -0.64837E-04   -0.78385E-05    32   0.410E-02    0.120E-02
DAV:   6    -0.177464322064E+02   -0.52226E-04   -0.13832E-05    40   0.179E-02    0.312E-03
DAV:   7    -0.177464789657E+02   -0.46759E-04   -0.54884E-06    40   0.859E-03    0.169E-03
DAV:   8    -0.177465274453E+02   -0.48480E-04   -0.68986E-06    40   0.921E-03    0.993E-04
DAV:   9    -0.177465699842E+02   -0.42539E-04   -0.89171E-06    40   0.970E-03    0.578E-04
DAV:  10    -0.177465823818E+02   -0.12398E-04   -0.94369E-07    40   0.329E-03    0.370E-04
DAV:  11    -0.177465918525E+02   -0.94707E-05   -0.37974E-07    32   0.238E-03
  61 F= -.17746592E+02 E0= -.17746592E+02  d E =0.148980E-01
quench:  g(F)=  0.000E+00 g(S)=  0.000E+00 dE (1.order)= 0.000E+00
 bond charge predicted
       N       E                     dE             d eps       ncg     rms          rms(c)
DAV:   1    -0.177522152175E+02   -0.56328E-02   -0.13599E+00    32   0.645E+00    0.350E-01
DAV:   2    -0.177527044907E+02   -0.48927E-03   -0.17745E-02    40   0.708E-01    0.198E-01
DAV:   3    -0.177522705145E+02    0.43398E-03   -0.22502E-03    56   0.182E-01    0.589E-02
DAV:   4    -0.177522453488E+02    0.25166E-04   -0.34290E-04    48   0.809E-02    0.231E-02
DAV:   5    -0.177522426520E+02    0.26968E-05   -0.36562E-05    40   0.265E-02
  62 F= -.17752243E+02 E0= -.17752243E+02  d E =-.565080E-02
quench:  g(F)=  0.000E+00 g(S)=  0.000E+00 dE (1.order)= 0.000E+00
 bond charge predicted
       N       E                     dE             d eps       ncg     rms          rms(c)
DAV:   1    -0.177534919863E+02   -0.12466E-02   -0.38298E-01    32   0.340E+00    0.174E-01
DAV:   2    -0.177536622999E+02   -0.17031E-03   -0.46163E-03    40   0.373E-01    0.101E-01
DAV:   3    -0.177535340607E+02    0.12824E-03   -0.66347E-04    48   0.109E-01    0.261E-02
DAV:   4    -0.177535360586E+02   -0.19979E-05   -0.10024E-04    32   0.440E-02    0.127E-02
DAV:   5    -0.177535428855E+02   -0.68269E-05   -0.10436E-05    40   0.145E-02
  63 F= -.17753543E+02 E0= -.17753543E+02  d E =-.130023E-02
quench:  g(F)=  0.000E+00 g(S)=  0.000E+00 dE (1.order)= 0.000E+00
 bond charge predicted
       N       E                     dE             d eps       ncg     rms          rms(c)
DAV:   1    -0.177537567059E+02   -0.22065E-03   -0.22543E-02    32   0.825E-01    0.400E-02
DAV:   2    -0.177537692942E+02   -0.12588E-04   -0.33996E-04    56   0.991E-02    0.251E-02
DAV:   3    -0.177537675319E+02    0.17623E-05   -0.40238E-05    40   0.292E-02
  64 F= -.17753768E+02 E0= -.17753768E+02  d E =-.224646E-03
quench:  g(F)=  0.000E+00 g(S)=  0.000E+00 dE (1.order)= 0.000E+00
 bond charge predicted
       N       E                     dE             d eps       ncg     rms          rms(c)
DAV:   1    -0.177533213939E+02    0.44790E-03   -0.48983E-02    48   0.115E+00    0.771E-02
DAV:   2    -0.177532341209E+02    0.87273E-04   -0.83027E-04    40   0.136E-01    0.413E-02
DAV:   3    -0.177532080820E+02    0.26039E-04   -0.13573E-04    56   0.432E-02    0.124E-02
DAV:   4    -0.177532151929E+02   -0.71109E-05   -0.14417E-05    32   0.179E-02
  65 F= -.17753215E+02 E0= -.17753215E+02  d E =0.552339E-03
quench:  g(F)=  0.000E+00 g(S)=  0.000E+00 dE (1.order)= 0.000E+00
 bond charge predicted
       N       E                     dE             d eps       ncg     rms          rms(c)
DAV:   1    -0.177538494018E+02   -0.64132E-03   -0.11291E-01    32   0.185E+00    0.101E-01
DAV:   2    -0.177539151424E+02   -0.65741E-04   -0.14192E-03    40   0.203E-01    0.592E-02
DAV:   3    -0.177538971213E+02    0.18021E-04   -0.18326E-04    56   0.616E-02    0.117E-02
DAV:   4    -0.177538997646E+02   -0.26433E-05   -0.21982E-05    40   0.207E-02
  66 F= -.17753900E+02 E0= -.17753900E+02  d E =-.684572E-03
quench:  g(F)=  0.000E+00 g(S)=  0.000E+00 dE (1.order)= 0.000E+00
 bond charge predicted
       N       E                     dE             d eps       ncg     rms          rms(c)
DAV:   1    -0.177523219669E+02    0.15752E-02   -0.28634E-01    32   0.300E+00    0.182E-01
DAV:   2    -0.177520740556E+02    0.24791E-03   -0.37213E-03    40   0.323E-01    0.103E-01
DAV:   3    -0.177518819327E+02    0.19212E-03   -0.10902E-03    48   0.147E-01    0.213E-02
DAV:   4    -0.177518817646E+02    0.16817E-06   -0.54177E-05    40   0.347E-02
  67 F= -.17751882E+02 E0= -.17751882E+02  d E =0.201800E-02
quench:  g(F)=  0.000E+00 g(S)=  0.000E+00 dE (1.order)= 0.000E+00
 bond charge predicted
       N       E                     dE             d eps       ncg     rms          rms(c)
DAV:   1    -0.177539132493E+02   -0.20313E-02   -0.64676E-02    48   0.144E+00    0.863E-02
DAV:   2    -0.177538145705E+02    0.98679E-04   -0.13089E-03    32   0.183E-01    0.483E-02
DAV:   3    -0.177537749558E+02    0.39615E-04   -0.24924E-04    32   0.727E-02    0.165E-02
DAV:   4    -0.177537760799E+02   -0.11241E-05   -0.18535E-05    32   0.228E-02
  68 F= -.17753776E+02 E0= -.17753776E+02  d E =-.189432E-02
quench:  g(F)=  0.000E+00 g(S)=  0.000E+00 dE (1.order)= 0.000E+00
 bond charge predicted
       N       E                     dE             d eps       ncg     rms          rms(c)
DAV:   1    -0.177529488770E+02    0.82608E-03   -0.13856E-01    32   0.211E+00    0.122E-01
DAV:   2    -0.177528331151E+02    0.11576E-03   -0.22585E-03    40   0.246E-01    0.700E-02
DAV:   3    -0.177527399693E+02    0.93146E-04   -0.47368E-04    40   0.106E-01    0.206E-02
DAV:   4    -0.177527443947E+02   -0.44254E-05   -0.31268E-05    32   0.278E-02
  69 F= -.17752744E+02 E0= -.17752744E+02  d E =0.103169E-02
quench:  g(F)=  0.000E+00 g(S)=  0.000E+00 dE (1.order)= 0.000E+00
 bond charge predicted
       N       E                     dE             d eps       ncg     rms          rms(c)
DAV:   1    -0.177539696708E+02   -0.12297E-02   -0.11836E-01    32   0.193E+00    0.105E-01
DAV:   2    -0.177539180728E+02    0.51598E-04   -0.19729E-03    40   0.234E-01    0.629E-02
DAV:   3    -0.177538627139E+02    0.55359E-04   -0.28526E-04    56   0.772E-02    0.175E-02
DAV:   4    -0.177538585757E+02    0.41382E-05   -0.21462E-05    48   0.234E-02
  70 F= -.17753859E+02 E0= -.17753859E+02  d E =-.111418E-02
quench:  g(F)=  0.000E+00 g(S)=  0.000E+00 dE (1.order)= 0.000E+00
 bond charge predicted
       N       E                     dE             d eps       ncg     rms          rms(c)
DAV:   1    -0.177538366397E+02    0.26074E-04   -0.31317E-03    32   0.304E-01    0.199E-02
DAV:   2    -0.177538322698E+02    0.43699E-05   -0.48117E-05    56   0.330E-02
  71 F= -.17753832E+02 E0= -.17753832E+02  d E =0.263059E-04
quench:  g(F)=  0.000E+00 g(S)=  0.000E+00 dE (1.order)= 0.000E+00
 bond charge predicted
       N       E                     dE             d eps       ncg     rms          rms(c)
DAV:   1    -0.177538583427E+02   -0.21703E-04   -0.24553E-03    32   0.267E-01    0.128E-02
DAV:   2    -0.177538599107E+02   -0.15680E-05   -0.43869E-05    32   0.346E-02
  72 F= -.17753860E+02 E0= -.17753860E+02  d E =-.276409E-04
quench:  g(F)=  0.000E+00 g(S)=  0.000E+00 dE (1.order)= 0.000E+00
 bond charge predicted
       N       E                     dE             d eps       ncg     rms          rms(c)
DAV:   1    -0.177538406163E+02    0.17726E-04   -0.32714E-03    48   0.316E-01    0.172E-02
DAV:   2    -0.177538414772E+02   -0.86090E-06   -0.39446E-05    56   0.349E-02
  73 F= -.17753841E+02 E0= -.17753841E+02  d E =0.184335E-04
quench:  g(F)=  0.000E+00 g(S)=  0.000E+00 dE (1.order)= 0.000E+00
 bond charge predicted
       N       E                     dE             d eps       ncg     rms          rms(c)
DAV:   1    -0.177538367421E+02    0.38742E-05   -0.77243E-03    40   0.490E-01    0.278E-02
DAV:   2    -0.177538332414E+02    0.35007E-05   -0.11363E-04    48   0.547E-02    0.162E-02
DAV:   3    -0.177538283536E+02    0.48879E-05   -0.25387E-05    40   0.204E-02
  74 F= -.17753828E+02 E0= -.17753828E+02  d E =0.131236E-04
quench:  g(F)=  0.000E+00 g(S)=  0.000E+00 dE (1.order)= 0.000E+00
 bond charge predicted
       N       E                     dE             d eps       ncg     rms          rms(c)
DAV:   1    -0.177538642019E+02   -0.30960E-04   -0.16910E-03    48   0.231E-01    0.135E-02
DAV:   2    -0.177538617459E+02    0.24560E-05   -0.33764E-05    40   0.297E-02
  75 F= -.17753862E+02 E0= -.17753862E+02  d E =-.333923E-04
quench:  g(F)=  0.000E+00 g(S)=  0.000E+00 dE (1.order)= 0.000E+00
 bond charge predicted
       N       E                     dE             d eps       ncg     rms          rms(c)
DAV:   1    -0.177538535127E+02    0.10689E-04   -0.58549E-04    48   0.134E-01    0.952E-03
DAV:   2    -0.177538523124E+02    0.12002E-05   -0.12793E-05    48   0.168E-02
  76 F= -.17753852E+02 E0= -.17753852E+02  d E =0.943344E-05
quench:  g(F)=  0.000E+00 g(S)=  0.000E+00 dE (1.order)= 0.000E+00
 bond charge predicted
       N       E                     dE             d eps       ncg     rms          rms(c)
DAV:   1    -0.177538152492E+02    0.38263E-04   -0.14467E-03    32   0.204E-01    0.149E-02
DAV:   2    -0.177538119686E+02    0.32805E-05   -0.26575E-05    56   0.243E-02
  77 F= -.17753812E+02 E0= -.17753812E+02  d E =0.403438E-04
quench:  g(F)=  0.000E+00 g(S)=  0.000E+00 dE (1.order)= 0.000E+00
 bond charge predicted
       N       E                     dE             d eps       ncg     rms          rms(c)
DAV:   1    -0.177535429159E+02    0.27233E-03   -0.50496E-02    48   0.123E+00    0.634E-02
DAV:   2    -0.177535209742E+02    0.21942E-04   -0.91399E-04    56   0.153E-01    0.370E-02
DAV:   3    -0.177534998364E+02    0.21138E-04   -0.11296E-04    40   0.467E-02    0.109E-02
DAV:   4    -0.177535009994E+02   -0.11630E-05   -0.95194E-06    32   0.163E-02
  78 F= -.17753501E+02 E0= -.17753501E+02  d E =0.310969E-03
quench:  g(F)=  0.000E+00 g(S)=  0.000E+00 dE (1.order)= 0.000E+00
 bond charge predicted
       N       E                     dE             d eps       ncg     rms          rms(c)
DAV:   1    -0.177536852245E+02   -0.18539E-03   -0.82513E-02    48   0.161E+00    0.855E-02
DAV:   2    -0.177536481439E+02    0.37081E-04   -0.14224E-03    56   0.196E-01    0.503E-02
DAV:   3    -0.177536022358E+02    0.45908E-04   -0.21582E-04    40   0.673E-02    0.144E-02
DAV:   4    -0.177536012699E+02    0.96588E-06   -0.12747E-05    32   0.190E-02
  79 F= -.17753601E+02 E0= -.17753601E+02  d E =-.100271E-03
quench:  g(F)=  0.000E+00 g(S)=  0.000E+00 dE (1.order)= 0.000E+00
 bond charge predicted
       N       E                     dE             d eps       ncg     rms          rms(c)
DAV:   1    -0.177538700371E+02   -0.26780E-03   -0.18008E-02    32   0.748E-01    0.435E-02
DAV:   2    -0.177538606713E+02    0.93658E-05   -0.25537E-04    40   0.859E-02    0.257E-02
DAV:   3    -0.177538508658E+02    0.98055E-05   -0.61220E-05    48   0.367E-02
  80 F= -.17753851E+02 E0= -.17753851E+02  d E =-.249596E-03
quench:  g(F)=  0.000E+00 g(S)=  0.000E+00 dE (1.order)= 0.000E+00
 bond charge predicted
       N       E                     dE             d eps       ncg     rms          rms(c)
DAV:   1    -0.177521292683E+02    0.17314E-02   -0.13537E-01    40   0.198E+00    0.106E-01
DAV:   2    -0.177520184797E+02    0.11079E-03   -0.17719E-03    48   0.227E-01    0.625E-02
DAV:   3    -0.177519151978E+02    0.10328E-03   -0.62313E-04    40   0.115E-01    0.150E-02
DAV:   4    -0.177519136635E+02    0.15343E-05   -0.41797E-05    48   0.341E-02
  81 F= -.17751914E+02 E0= -.17751914E+02  d E =0.193720E-02
quench:  g(F)=  0.000E+00 g(S)=  0.000E+00 dE (1.order)= 0.000E+00
 bond charge predicted
       N       E                     dE             d eps       ncg     rms          rms(c)
DAV:   1    -0.177540163252E+02   -0.21011E-02   -0.14302E-01    48   0.206E+00    0.110E-01
DAV:   2    -0.177538827212E+02    0.13360E-03   -0.20484E-03    48   0.247E-01    0.645E-02
DAV:   3    -0.177538064902E+02    0.76231E-04   -0.60982E-04    56   0.101E-01    0.199E-02
DAV:   4    -0.177538037345E+02    0.27557E-05   -0.61909E-05    40   0.329E-02
  82 F= -.17753804E+02 E0= -.17753804E+02  d E =-.189007E-02
quench:  g(F)=  0.000E+00 g(S)=  0.000E+00 dE (1.order)= 0.000E+00
 bond charge predicted
       N       E                     dE             d eps       ncg     rms          rms(c)
DAV:   1    -0.177538775677E+02   -0.71078E-04   -0.62302E-03    40   0.439E-01    0.255E-02
DAV:   2    -0.177538718853E+02    0.56824E-05   -0.13077E-04    32   0.567E-02    0.147E-02
DAV:   3    -0.177538697571E+02    0.21282E-05   -0.16625E-05    32   0.187E-02
  83 F= -.17753870E+02 E0= -.17753870E+02  d E =-.660226E-04
quench:  g(F)=  0.000E+00 g(S)=  0.000E+00 dE (1.order)= 0.000E+00
 bond charge predicted
       N       E                     dE             d eps       ncg     rms          rms(c)
DAV:   1    -0.177538320014E+02    0.39884E-04   -0.40808E-03    32   0.339E-01    0.233E-02
DAV:   2    -0.177538266953E+02    0.53061E-05   -0.45416E-05    48   0.316E-02
  84 F= -.17753827E+02 E0= -.17753827E+02  d E =0.430618E-04
quench:  g(F)=  0.000E+00 g(S)=  0.000E+00 dE (1.order)= 0.000E+00
 bond charge predicted
       N       E                     dE             d eps       ncg     rms          rms(c)
DAV:   1    -0.177528648362E+02    0.96717E-03   -0.42133E-01    32   0.361E+00    0.207E-01
DAV:   2    -0.177528525143E+02    0.12322E-04   -0.57897E-03    40   0.387E-01    0.120E-01
DAV:   3    -0.177527002441E+02    0.15227E-03   -0.13074E-03    56   0.138E-01    0.423E-02
DAV:   4    -0.177526745656E+02    0.25679E-04   -0.20204E-04    32   0.647E-02    0.155E-02
DAV:   5    -0.177526747661E+02   -0.20054E-06   -0.39880E-05    40   0.255E-02
  85 F= -.17752675E+02 E0= -.17752675E+02  d E =0.115193E-02
quench:  g(F)=  0.000E+00 g(S)=  0.000E+00 dE (1.order)= 0.000E+00
 bond charge predicted
       N       E                     dE             d eps       ncg     rms          rms(c)
DAV:   1    -0.177539586796E+02   -0.12841E-02   -0.30283E-01    32   0.306E+00    0.175E-01
DAV:   2    -0.177540038726E+02   -0.45193E-04   -0.39442E-03    48   0.324E-01    0.101E-01
DAV:   3    -0.177538491345E+02    0.15474E-03   -0.89001E-04    40   0.129E-01    0.250E-02
DAV:   4    -0.177538415854E+02    0.75491E-05   -0.88439E-05    56   0.383E-02
  86 F= -.17753842E+02 E0= -.17753842E+02  d E =-.116682E-02
quench:  g(F)=  0.000E+00 g(S)=  0.000E+00 dE (1.order)= 0.000E+00
 bond charge predicted
       N       E                     dE             d eps       ncg     rms          rms(c)
DAV:   1    -0.177538502542E+02   -0.11197E-05   -0.82598E-03    32   0.505E-01    0.280E-02
DAV:   2    -0.177538544518E+02   -0.41976E-05   -0.10318E-04    40   0.542E-02    0.169E-02
DAV:   3    -0.177538531653E+02    0.12864E-05   -0.17537E-05    32   0.186E-02
  87 F= -.17753853E+02 E0= -.17753853E+02  d E =-.115799E-04
quench:  g(F)=  0.000E+00 g(S)=  0.000E+00 dE (1.order)= 0.000E+00
 bond charge predicted
       N       E                     dE             d eps       ncg     rms          rms(c)
DAV:   1    -0.177538569461E+02   -0.24943E-05   -0.82676E-04    32   0.161E-01    0.946E-03
DAV:   2    -0.177538567552E+02    0.19092E-06   -0.13356E-05    40   0.191E-02
  88 F= -.17753857E+02 E0= -.17753857E+02  d E =-.358984E-05
quench:  g(F)=  0.000E+00 g(S)=  0.000E+00 dE (1.order)= 0.000E+00
 bond charge predicted
       N       E                     dE             d eps       ncg     rms          rms(c)
DAV:   1    -0.177538555994E+02    0.13467E-05   -0.14418E-04    32   0.665E-02    0.397E-03
DAV:   2    -0.177538560121E+02   -0.41276E-06   -0.19298E-06    48   0.749E-03
  89 F= -.17753856E+02 E0= -.17753856E+02  d E =0.743042E-06
quench:  g(F)=  0.000E+00 g(S)=  0.000E+00 dE (1.order)= 0.000E+00
 bond charge predicted
       N       E                     dE             d eps       ncg     rms          rms(c)
DAV:   1    -0.177538578274E+02   -0.22280E-05   -0.65219E-04    32   0.139E-01    0.856E-03
DAV:   2    -0.177538570318E+02    0.79560E-06   -0.95226E-06    40   0.166E-02
  90 F= -.17753857E+02 E0= -.17753857E+02  d E =-.101963E-05
quench:  g(F)=  0.000E+00 g(S)=  0.000E+00 dE (1.order)= 0.000E+00
 bond charge predicted
       N       E                     dE             d eps       ncg     rms          rms(c)
DAV:   1    -0.177538362331E+02    0.21594E-04   -0.38482E-03    32   0.344E-01    0.203E-02
DAV:   2    -0.177538358461E+02    0.38697E-06   -0.54370E-05    56   0.361E-02
  91 F= -.17753836E+02 E0= -.17753836E+02  d E =0.211857E-04
quench:  g(F)=  0.000E+00 g(S)=  0.000E+00 dE (1.order)= 0.000E+00
 bond charge predicted
       N       E                     dE             d eps       ncg     rms          rms(c)
DAV:   1    -0.177538596630E+02   -0.23430E-04   -0.71997E-03    32   0.463E-01    0.256E-02
DAV:   2    -0.177538593044E+02    0.35864E-06   -0.89544E-05    48   0.466E-02
  92 F= -.17753859E+02 E0= -.17753859E+02  d E =-.234583E-04
quench:  g(F)=  0.000E+00 g(S)=  0.000E+00 dE (1.order)= 0.000E+00
 bond charge predicted
       N       E                     dE             d eps       ncg     rms          rms(c)
DAV:   1    -0.177538617347E+02   -0.20716E-05   -0.57746E-04    32   0.125E-01    0.845E-03
DAV:   2    -0.177538604231E+02    0.13116E-05   -0.93626E-06    48   0.147E-02
  93 F= -.17753860E+02 E0= -.17753860E+02  d E =-.111866E-05
quench:  g(F)=  0.000E+00 g(S)=  0.000E+00 dE (1.order)= 0.000E+00
 bond charge predicted
       N       E                     dE             d eps       ncg     rms          rms(c)
DAV:   1    -0.177538598731E+02    0.18615E-05   -0.32413E-05    48   0.305E-02    0.238E-03
DAV:   2    -0.177538597585E+02    0.11464E-06   -0.53641E-07    40   0.364E-03
  94 F= -.17753860E+02 E0= -.17753860E+02  d E =0.664570E-06
quench:  g(F)=  0.000E+00 g(S)=  0.000E+00 dE (1.order)= 0.000E+00
 bond charge predicted
       N       E                     dE             d eps       ncg     rms          rms(c)
DAV:   1    -0.177538595446E+02    0.32848E-06   -0.18098E-04    40   0.742E-02    0.432E-03
DAV:   2    -0.177538596296E+02   -0.84959E-07   -0.19716E-06    24   0.762E-03
  95 F= -.17753860E+02 E0= -.17753860E+02  d E =0.128881E-06
quench:  g(F)=  0.000E+00 g(S)=  0.000E+00 dE (1.order)= 0.000E+00
 bond charge predicted
       N       E                     dE             d eps       ncg     rms          rms(c)
DAV:   1    -0.177537696075E+02    0.89937E-04   -0.50537E-02    32   0.125E+00    0.729E-02
DAV:   2    -0.177537614252E+02    0.81824E-05   -0.68691E-04    48   0.131E-01    0.423E-02
DAV:   3    -0.177537424558E+02    0.18969E-04   -0.11822E-04    56   0.419E-02    0.106E-02
DAV:   4    -0.177537427021E+02   -0.24629E-06   -0.10382E-05    48   0.153E-02
  96 F= -.17753743E+02 E0= -.17753743E+02  d E =0.116928E-03
quench:  g(F)=  0.000E+00 g(S)=  0.000E+00 dE (1.order)= 0.000E+00
 bond charge predicted
       N       E                     dE             d eps       ncg     rms          rms(c)
DAV:   1    -0.177539553360E+02   -0.21288E-03   -0.14160E-02    48   0.683E-01    0.420E-02
DAV:   2    -0.177539300277E+02    0.25308E-04   -0.28765E-04    32   0.846E-02    0.229E-02
DAV:   3    -0.177539204636E+02    0.95642E-05   -0.56344E-05    40   0.337E-02
  97 F= -.17753920E+02 E0= -.17753920E+02  d E =-.177761E-03
quench:  g(F)=  0.000E+00 g(S)=  0.000E+00 dE (1.order)= 0.000E+00
 bond charge predicted
       N       E                     dE             d eps       ncg     rms          rms(c)
DAV:   1    -0.177539504847E+02   -0.20457E-04   -0.35861E+00    32   0.104E+01    0.575E-01
DAV:   2    -0.177554866449E+02   -0.15362E-02   -0.43355E-02    56   0.112E+00    0.328E-01
DAV:   3    -0.177545536797E+02    0.93297E-03   -0.52617E-03    56   0.297E-01    0.702E-02
DAV:   4    -0.177545389062E+02    0.14774E-04   -0.89170E-04    48   0.129E-01    0.349E-02
DAV:   5    -0.177545371541E+02    0.17521E-05   -0.77209E-05    32   0.379E-02
  98 F= -.17754537E+02 E0= -.17754537E+02  d E =-.616691E-03
quench:  g(F)=  0.000E+00 g(S)=  0.000E+00 dE (1.order)= 0.000E+00
 bond charge predicted
       N       E                     dE             d eps       ncg     rms          rms(c)
DAV:   1    -0.177527594775E+02    0.17794E-02   -0.29874E+00    32   0.953E+00    0.515E-01
DAV:   2    -0.177544703837E+02   -0.17109E-02   -0.36752E-02    40   0.103E+00    0.297E-01
DAV:   3    -0.177537846023E+02    0.68578E-03   -0.40698E-03    56   0.269E-01    0.508E-02
DAV:   4    -0.177537919024E+02   -0.73001E-05   -0.33238E-04    32   0.872E-02    0.288E-02
DAV:   5    -0.177537910977E+02    0.80468E-06   -0.40783E-05    32   0.315E-02
  99 F= -.17753791E+02 E0= -.17753791E+02  d E =0.746056E-03
quench:  g(F)=  0.000E+00 g(S)=  0.000E+00 dE (1.order)= 0.000E+00
 bond charge predicted
       N       E                     dE             d eps       ncg     rms          rms(c)
DAV:   1    -0.177537129882E+02    0.78914E-04   -0.92685E-02    32   0.169E+00    0.947E-02
DAV:   2    -0.177537605541E+02   -0.47566E-04   -0.12061E-03    40   0.185E-01    0.560E-02
DAV:   3    -0.177537310371E+02    0.29517E-04   -0.21941E-04    40   0.683E-02    0.106E-02
DAV:   4    -0.177537322403E+02   -0.12032E-05   -0.14032E-05    48   0.180E-02
 100 F= -.17753732E+02 E0= -.17753732E+02  d E =0.588574E-04
quench:  g(F)=  0.000E+00 g(S)=  0.000E+00 dE (1.order)= 0.000E+00
 writing wavefunctions
