 vasp.5.4.1 24Jun15 (build Nov 26 2018 14:23:16) complex                        
  
 POSCAR found type information on POSCAR  C  N  H 
 04/POSCAR found :  3 types and       3 ions
 scaLAPACK will be used

 ----------------------------------------------------------------------------- 
|                                                                             |
|           W    W    AA    RRRRR   N    N  II  N    N   GGGG   !!!           |
|           W    W   A  A   R    R  NN   N  II  NN   N  G    G  !!!           |
|           W    W  A    A  R    R  N N  N  II  N N  N  G       !!!           |
|           W WW W  AAAAAA  RRRRR   N  N N  II  N  N N  G  GGG   !            |
|           WW  WW  A    A  R   R   N   NN  II  N   NN  G    G                |
|           W    W  A    A  R    R  N    N  II  N    N   GGGG   !!!           |
|                                                                             |
|      For optimal performance we recommend to set                            |
|        NCORE= 4 - approx SQRT( number of cores)                             |
|      NCORE specifies how many cores store one orbital (NPAR=cpu/NCORE).     |
|      This setting can  greatly improve the performance of VASP for DFT.     |
|      The default, NPAR=number of cores might be grossly inefficient         |
|      on modern multi-core architectures or massively parallel machines.     |
|      Do your own testing !!!!                                               |
|      Unfortunately you need to use the default for GW and RPA calculations. |
|      (for HF NCORE is supported but not extensively tested yet)             |
|                                                                             |
 ----------------------------------------------------------------------------- 

 LDA part: xc-table for Ceperly-Alder, standard interpolation
 POSCAR found type information on POSCAR  C  N  H 
 00/POSCAR found :  3 types and       3 ions
 POSCAR found type information on POSCAR  C  N  H 
 06/POSCAR found :  3 types and       3 ions
 Jacobian:    24.0187391035201     
 POSCAR, INCAR and KPOINTS ok, starting setup
 WARNING: small aliasing (wrap around) errors must be expected
 FFT: planning ...
 WAVECAR not read
 entering main loop
       N       E                     dE             d eps       ncg     rms          rms(c)
DAV:   1     0.935967005793E+02    0.93597E+02   -0.20649E+03    48   0.247E+02
DAV:   2    -0.155065787896E+01   -0.95147E+02   -0.94713E+02    48   0.903E+01
DAV:   3    -0.148482522084E+02   -0.13298E+02   -0.13282E+02    48   0.455E+01
DAV:   4    -0.150982029862E+02   -0.24995E+00   -0.24992E+00    56   0.844E+00
DAV:   5    -0.150985206180E+02   -0.31763E-03   -0.31759E-03    40   0.273E-01    0.148E+01
DAV:   6    -0.828495465992E+01    0.68136E+01   -0.14059E+01    40   0.185E+01    0.582E+00
DAV:   7    -0.731500099269E+01    0.96995E+00   -0.46287E+00    56   0.103E+01    0.181E+00
DAV:   8    -0.728427094958E+01    0.30730E-01   -0.84792E-02    56   0.158E+00    0.710E-01
DAV:   9    -0.726714921528E+01    0.17122E-01   -0.15238E-02    40   0.647E-01    0.140E-01
DAV:  10    -0.726755734295E+01   -0.40813E-03   -0.38449E-03    32   0.326E-01    0.850E-02
DAV:  11    -0.727020539479E+01   -0.26481E-02   -0.73402E-03    40   0.353E-01    0.544E-02
DAV:  12    -0.727572256098E+01   -0.55172E-02   -0.27724E-03    32   0.271E-01    0.350E-02
DAV:  13    -0.727872146552E+01   -0.29989E-02   -0.15530E-03    32   0.151E-01    0.226E-02
DAV:  14    -0.728184882013E+01   -0.31274E-02   -0.14187E-03    40   0.129E-01    0.222E-02
DAV:  15    -0.728291567578E+01   -0.10669E-02   -0.38187E-04    48   0.739E-02    0.737E-03
DAV:  16    -0.728360452659E+01   -0.68885E-03   -0.16051E-04    56   0.425E-02    0.588E-03
DAV:  17    -0.728380013767E+01   -0.19561E-03   -0.18294E-05    48   0.161E-02    0.239E-03
DAV:  18    -0.728401388104E+01   -0.21374E-03   -0.18297E-05    32   0.119E-02    0.175E-03
DAV:  19    -0.728409133380E+01   -0.77453E-04   -0.59827E-06    48   0.707E-03    0.850E-04
DAV:  20    -0.728412017371E+01   -0.28840E-04   -0.13344E-06    32   0.355E-03    0.795E-04
DAV:  21    -0.728412947324E+01   -0.92995E-05   -0.46506E-07    32   0.241E-03
   1 F= -.72841295E+01 E0= -.72841295E+01  d E =-.728413E+01
quench:  g(F)=  0.000E+00 g(S)=  0.000E+00 dE (1.order)= 0.000E+00
 bond charge predicted
       N       E                     dE             d eps       ncg     rms          rms(c)
DAV:   1    -0.760822038624E+01   -0.32410E+00   -0.33233E-02    32   0.108E+00    0.109E-01
DAV:   2    -0.760787014723E+01    0.35024E-03   -0.10110E-03    40   0.180E-01    0.525E-02
DAV:   3    -0.760780275769E+01    0.67390E-04   -0.58771E-04    56   0.121E-01    0.136E-02
DAV:   4    -0.760780084665E+01    0.19110E-05   -0.47313E-05    40   0.325E-02
   2 F= -.76078008E+01 E0= -.76078008E+01  d E =-.323671E+00
quench:  g(F)=  0.000E+00 g(S)=  0.000E+00 dE (1.order)= 0.000E+00
 bond charge predicted
       N       E                     dE             d eps       ncg     rms          rms(c)
DAV:   1    -0.125585902773E+02   -0.49508E+01   -0.11359E+01    32   0.200E+01    0.192E+00
DAV:   2    -0.124438387901E+02    0.11475E+00   -0.33027E-01    48   0.311E+00    0.919E-01
DAV:   3    -0.124274963106E+02    0.16342E-01   -0.16836E-01    56   0.200E+00    0.224E-01
DAV:   4    -0.124272903572E+02    0.20595E-03   -0.12538E-02    56   0.511E-01    0.115E-01
DAV:   5    -0.124267608341E+02    0.52952E-03   -0.11234E-03    40   0.195E-01    0.298E-02
DAV:   6    -0.124267931905E+02   -0.32356E-04   -0.18860E-04    48   0.812E-02    0.159E-02
DAV:   7    -0.124269702460E+02   -0.17706E-03   -0.85252E-05    32   0.413E-02    0.551E-03
DAV:   8    -0.124271262422E+02   -0.15600E-03   -0.30287E-05    48   0.215E-02    0.457E-03
DAV:   9    -0.124273934409E+02   -0.26720E-03   -0.93182E-05    32   0.299E-02    0.277E-03
DAV:  10    -0.124275299922E+02   -0.13655E-03   -0.21299E-05    48   0.126E-02    0.133E-03
DAV:  11    -0.124275914086E+02   -0.61416E-04   -0.38846E-06    32   0.502E-03    0.845E-04
DAV:  12    -0.124276419270E+02   -0.50518E-04   -0.18021E-06    48   0.507E-03    0.611E-04
DAV:  13    -0.124276627059E+02   -0.20779E-04   -0.85495E-07    32   0.398E-03    0.335E-04
DAV:  14    -0.124276692071E+02   -0.65012E-05   -0.48061E-07    32   0.316E-03
   3 F= -.12427669E+02 E0= -.12427669E+02  d E =-.481987E+01
quench:  g(F)=  0.000E+00 g(S)=  0.000E+00 dE (1.order)= 0.000E+00
 bond charge predicted
       N       E                     dE             d eps       ncg     rms          rms(c)
DAV:   1    -0.169347117534E+02   -0.45070E+01   -0.29616E+01    32   0.323E+01    0.270E+00
DAV:   2    -0.167143166420E+02    0.22040E+00   -0.72483E-01    56   0.450E+00    0.134E+00
DAV:   3    -0.166774494060E+02    0.36867E-01   -0.35915E-01    56   0.279E+00    0.339E-01
DAV:   4    -0.166768756719E+02    0.57373E-03   -0.26519E-02    40   0.745E-01    0.179E-01
DAV:   5    -0.166764283515E+02    0.44732E-03   -0.14871E-03    48   0.217E-01    0.681E-02
DAV:   6    -0.166764133187E+02    0.15033E-04   -0.76578E-04    48   0.156E-01    0.258E-02
DAV:   7    -0.166766741156E+02   -0.26080E-03   -0.13797E-04    32   0.607E-02    0.971E-03
DAV:   8    -0.166770066901E+02   -0.33257E-03   -0.80651E-05    48   0.386E-02    0.592E-03
DAV:   9    -0.166775578886E+02   -0.55120E-03   -0.18570E-04    32   0.458E-02    0.620E-03
DAV:  10    -0.166778439530E+02   -0.28606E-03   -0.51426E-05    48   0.225E-02    0.205E-03
DAV:  11    -0.166779768864E+02   -0.13293E-03   -0.10396E-05    32   0.107E-02    0.189E-03
DAV:  12    -0.166780541926E+02   -0.77306E-04   -0.43843E-06    48   0.805E-03    0.166E-03
DAV:  13    -0.166780927290E+02   -0.38536E-04   -0.18714E-06    32   0.686E-03    0.498E-04
DAV:  14    -0.166781046028E+02   -0.11874E-04   -0.10877E-06    48   0.437E-03    0.525E-04
DAV:  15    -0.166781108465E+02   -0.62438E-05   -0.33142E-07    32   0.226E-03
   4 F= -.16678111E+02 E0= -.16678111E+02  d E =-.425044E+01
quench:  g(F)=  0.000E+00 g(S)=  0.000E+00 dE (1.order)= 0.000E+00
 bond charge predicted
       N       E                     dE             d eps       ncg     rms          rms(c)
DAV:   1    -0.179871160224E+02   -0.13090E+01   -0.13476E+01    32   0.215E+01    0.157E+00
DAV:   2    -0.179176426610E+02    0.69473E-01   -0.29922E-01    48   0.279E+00    0.818E-01
DAV:   3    -0.179028681199E+02    0.14775E-01   -0.10530E-01    64   0.155E+00    0.210E-01
DAV:   4    -0.179027636598E+02    0.10446E-03   -0.33108E-03    56   0.301E-01    0.111E-01
DAV:   5    -0.179026775024E+02    0.86157E-04   -0.32162E-04    32   0.108E-01    0.324E-02
DAV:   6    -0.179028218655E+02   -0.14436E-03   -0.41917E-04    56   0.864E-02    0.235E-02
DAV:   7    -0.179028736338E+02   -0.51768E-04   -0.11499E-04    32   0.370E-02    0.979E-03
DAV:   8    -0.179031902871E+02   -0.31665E-03   -0.17119E-04    32   0.499E-02    0.136E-02
DAV:   9    -0.179032781035E+02   -0.87816E-04   -0.26533E-05    56   0.184E-02    0.602E-03
DAV:  10    -0.179035212597E+02   -0.24316E-03   -0.66009E-05    32   0.263E-02    0.255E-03
DAV:  11    -0.179035902965E+02   -0.69037E-04   -0.53644E-06    64   0.629E-03    0.125E-03
DAV:  12    -0.179036710133E+02   -0.80717E-04   -0.45548E-06    32   0.636E-03    0.109E-03
DAV:  13    -0.179037131794E+02   -0.42166E-04   -0.16109E-06    64   0.536E-03    0.550E-04
DAV:  14    -0.179037315311E+02   -0.18352E-04   -0.62701E-07    32   0.365E-03    0.355E-04
DAV:  15    -0.179037367679E+02   -0.52368E-05   -0.58411E-07    48   0.278E-03
   5 F= -.17903737E+02 E0= -.17903737E+02  d E =-.122563E+01
quench:  g(F)=  0.000E+00 g(S)=  0.000E+00 dE (1.order)= 0.000E+00
 bond charge predicted
       N       E                     dE             d eps       ncg     rms          rms(c)
DAV:   1    -0.182969036649E+02   -0.39317E+00   -0.73132E+00    32   0.156E+01    0.104E+00
DAV:   2    -0.182696364814E+02    0.27267E-01   -0.14903E-01    48   0.193E+00    0.566E-01
DAV:   3    -0.182627545291E+02    0.68820E-02   -0.42772E-02    64   0.978E-01    0.165E-01
DAV:   4    -0.182626174361E+02    0.13709E-03   -0.19557E-03    48   0.214E-01    0.822E-02
DAV:   5    -0.182626505677E+02   -0.33132E-04   -0.35752E-04    32   0.909E-02    0.269E-02
DAV:   6    -0.182627177987E+02   -0.67231E-04   -0.19648E-04    48   0.670E-02    0.178E-02
DAV:   7    -0.182627568870E+02   -0.39088E-04   -0.12769E-04    40   0.418E-02    0.910E-03
DAV:   8    -0.182629024154E+02   -0.14553E-03   -0.49519E-05    32   0.308E-02    0.483E-03
DAV:   9    -0.182630141536E+02   -0.11174E-03   -0.16364E-05    56   0.147E-02    0.281E-03
DAV:  10    -0.182631391419E+02   -0.12499E-03   -0.34245E-05    32   0.185E-02    0.154E-03
DAV:  11    -0.182632007950E+02   -0.61653E-04   -0.68584E-06    56   0.765E-03    0.159E-03
DAV:  12    -0.182632298686E+02   -0.29074E-04   -0.20311E-06    40   0.477E-03    0.602E-04
DAV:  13    -0.182632562788E+02   -0.26410E-04   -0.94071E-07    48   0.413E-03    0.613E-04
DAV:  14    -0.182632652326E+02   -0.89539E-05   -0.12628E-06    32   0.500E-03
   6 F= -.18263265E+02 E0= -.18263265E+02  d E =-.359528E+00
quench:  g(F)=  0.000E+00 g(S)=  0.000E+00 dE (1.order)= 0.000E+00
 bond charge predicted
       N       E                     dE             d eps       ncg     rms          rms(c)
DAV:   1    -0.183335909364E+02   -0.70335E-01   -0.25635E+00    32   0.906E+00    0.563E-01
DAV:   2    -0.183260365510E+02    0.75544E-02   -0.46891E-02    40   0.109E+00    0.322E-01
DAV:   3    -0.183238969931E+02    0.21396E-02   -0.14503E-02    56   0.560E-01    0.975E-02
DAV:   4    -0.183238079782E+02    0.89015E-04   -0.64448E-04    48   0.117E-01    0.474E-02
DAV:   5    -0.183238212147E+02   -0.13236E-04   -0.14595E-04    32   0.594E-02    0.162E-02
DAV:   6    -0.183238434572E+02   -0.22242E-04   -0.61681E-05    32   0.362E-02    0.961E-03
DAV:   7    -0.183238638381E+02   -0.20381E-04   -0.32890E-05    48   0.197E-02    0.493E-03
DAV:   8    -0.183239083754E+02   -0.44537E-04   -0.13434E-05    32   0.155E-02    0.202E-03
DAV:   9    -0.183239593379E+02   -0.50962E-04   -0.11709E-05    40   0.117E-02    0.162E-03
DAV:  10    -0.183239875514E+02   -0.28214E-04   -0.68946E-06    48   0.856E-03    0.965E-04
DAV:  11    -0.183240075150E+02   -0.19964E-04   -0.36883E-06    40   0.598E-03    0.132E-03
DAV:  12    -0.183240167734E+02   -0.92584E-05   -0.15687E-06    48   0.444E-03
   7 F= -.18324017E+02 E0= -.18324017E+02  d E =-.607515E-01
quench:  g(F)=  0.000E+00 g(S)=  0.000E+00 dE (1.order)= 0.000E+00
 bond charge predicted
       N       E                     dE             d eps       ncg     rms          rms(c)
DAV:   1    -0.183338025337E+02   -0.97950E-02   -0.60360E-01    32   0.432E+00    0.254E-01
DAV:   2    -0.183326313084E+02    0.11712E-02   -0.87175E-03    40   0.495E-01    0.146E-01
DAV:   3    -0.183321537552E+02    0.47755E-03   -0.31475E-03    56   0.259E-01    0.419E-02
DAV:   4    -0.183321298858E+02    0.23869E-04   -0.32452E-04    40   0.755E-02    0.213E-02
DAV:   5    -0.183321302511E+02   -0.36529E-06   -0.22377E-05    48   0.246E-02
   8 F= -.18332130E+02 E0= -.18332130E+02  d E =-.811348E-02
quench:  g(F)=  0.000E+00 g(S)=  0.000E+00 dE (1.order)= 0.000E+00
 bond charge predicted
       N       E                     dE             d eps       ncg     rms          rms(c)
DAV:   1    -0.183468133234E+02   -0.14683E-01   -0.28679E-01    48   0.290E+00    0.180E-01
DAV:   2    -0.183463019457E+02    0.51138E-03   -0.90837E-03    32   0.414E-01    0.956E-02
DAV:   3    -0.183461569530E+02    0.14499E-03   -0.62266E-04    56   0.123E-01    0.472E-02
DAV:   4    -0.183461110756E+02    0.45877E-04   -0.16790E-04    40   0.697E-02    0.122E-02
DAV:   5    -0.183461266583E+02   -0.15583E-04   -0.42457E-05    32   0.289E-02    0.561E-03
DAV:   6    -0.183461370678E+02   -0.10410E-04   -0.45934E-06    48   0.906E-03    0.249E-03
DAV:   7    -0.183461516433E+02   -0.14575E-04   -0.21158E-06    32   0.587E-03    0.938E-04
DAV:   8    -0.183461647593E+02   -0.13116E-04   -0.11295E-06    40   0.343E-03    0.525E-04
DAV:   9    -0.183461799888E+02   -0.15229E-04   -0.25361E-06    32   0.502E-03    0.451E-04
DAV:  10    -0.183461853082E+02   -0.53194E-05   -0.39703E-07    40   0.228E-03
   9 F= -.18346185E+02 E0= -.18346185E+02  d E =-.140551E-01
quench:  g(F)=  0.000E+00 g(S)=  0.000E+00 dE (1.order)= 0.000E+00
 bond charge predicted
       N       E                     dE             d eps       ncg     rms          rms(c)
DAV:   1    -0.183514870634E+02   -0.53071E-02   -0.20750E-01    32   0.256E+00    0.164E-01
DAV:   2    -0.183509100447E+02    0.57702E-03   -0.76841E-03    48   0.389E-01    0.973E-02
DAV:   3    -0.183507762615E+02    0.13378E-03   -0.78434E-04    56   0.127E-01    0.462E-02
DAV:   4    -0.183507367114E+02    0.39550E-04   -0.14768E-04    40   0.701E-02    0.166E-02
DAV:   5    -0.183507381979E+02   -0.14864E-05   -0.53911E-05    48   0.308E-02
  10 F= -.18350738E+02 E0= -.18350738E+02  d E =-.455289E-02
quench:  g(F)=  0.000E+00 g(S)=  0.000E+00 dE (1.order)= 0.000E+00
 bond charge predicted
       N       E                     dE             d eps       ncg     rms          rms(c)
DAV:   1    -0.183494524742E+02    0.12842E-02   -0.31470E-02    32   0.976E-01    0.705E-02
DAV:   2    -0.183493777521E+02    0.74722E-04   -0.80320E-04    32   0.133E-01    0.432E-02
DAV:   3    -0.183493545500E+02    0.23202E-04   -0.14079E-04    40   0.561E-02    0.181E-02
DAV:   4    -0.183493617299E+02   -0.71799E-05   -0.13975E-05    32   0.205E-02
  11 F= -.18349362E+02 E0= -.18349362E+02  d E =0.137647E-02
quench:  g(F)=  0.000E+00 g(S)=  0.000E+00 dE (1.order)= 0.000E+00
 bond charge predicted
       N       E                     dE             d eps       ncg     rms          rms(c)
DAV:   1    -0.183374385490E+02    0.11916E-01   -0.32539E-01    32   0.319E+00    0.209E-01
DAV:   2    -0.183374466823E+02   -0.81333E-05   -0.46501E-03    32   0.339E-01    0.131E-01
DAV:   3    -0.183373953632E+02    0.51319E-04   -0.10602E-03    56   0.149E-01    0.495E-02
DAV:   4    -0.183373798342E+02    0.15529E-04   -0.46194E-04    48   0.805E-02    0.197E-02
DAV:   5    -0.183373904138E+02   -0.10580E-04   -0.13163E-04    32   0.446E-02    0.776E-03
DAV:   6    -0.183374011789E+02   -0.10765E-04   -0.11756E-05    40   0.160E-02    0.212E-03
DAV:   7    -0.183374148784E+02   -0.13699E-04   -0.15892E-06    32   0.501E-03    0.865E-04
DAV:   8    -0.183374252159E+02   -0.10337E-04   -0.71650E-07    40   0.295E-03    0.523E-04
DAV:   9    -0.183374337690E+02   -0.85531E-05   -0.59000E-07    40   0.252E-03
  12 F= -.18337434E+02 E0= -.18337434E+02  d E =0.119280E-01
quench:  g(F)=  0.000E+00 g(S)=  0.000E+00 dE (1.order)= 0.000E+00
 bond charge predicted
       N       E                     dE             d eps       ncg     rms          rms(c)
DAV:   1    -0.182688388949E+02    0.68586E-01   -0.59815E+00    32   0.140E+01    0.769E-01
DAV:   2    -0.182731542033E+02   -0.43153E-02   -0.62593E-02    40   0.133E+00    0.496E-01
DAV:   3    -0.182729028370E+02    0.25137E-03   -0.12112E-02    56   0.490E-01    0.157E-01
DAV:   4    -0.182725928766E+02    0.30996E-03   -0.19159E-03    32   0.175E-01    0.551E-02
DAV:   5    -0.182726272382E+02   -0.34362E-04   -0.50074E-04    32   0.918E-02    0.157E-02
DAV:   6    -0.182726877263E+02   -0.60488E-04   -0.44162E-05    40   0.297E-02    0.569E-03
DAV:   7    -0.182727631285E+02   -0.75402E-04   -0.11410E-05    32   0.141E-02    0.226E-03
DAV:   8    -0.182728340459E+02   -0.70917E-04   -0.11161E-05    40   0.117E-02    0.121E-03
DAV:   9    -0.182728907907E+02   -0.56745E-04   -0.11367E-05    40   0.112E-02    0.823E-04
DAV:  10    -0.182729148367E+02   -0.24046E-04   -0.33467E-06    40   0.583E-03    0.470E-04
DAV:  11    -0.182729257770E+02   -0.10940E-04   -0.44284E-07    32   0.242E-03    0.234E-04
DAV:  12    -0.182729311026E+02   -0.53256E-05   -0.18212E-07    48   0.178E-03
  13 F= -.18272931E+02 E0= -.18272931E+02  d E =0.645027E-01
quench:  g(F)=  0.000E+00 g(S)=  0.000E+00 dE (1.order)= 0.000E+00
 bond charge predicted
       N       E                     dE             d eps       ncg     rms          rms(c)
DAV:   1    -0.182216845798E+02    0.51241E-01   -0.10390E+01    32   0.188E+01    0.869E-01
DAV:   2    -0.182198543347E+02    0.18302E-02   -0.13388E-01    48   0.195E+00    0.507E-01
DAV:   3    -0.182167354825E+02    0.31189E-02   -0.20681E-02    56   0.596E-01    0.183E-01
DAV:   4    -0.182165340098E+02    0.20147E-03   -0.31481E-03    40   0.237E-01    0.794E-02
DAV:   5    -0.182164826425E+02    0.51367E-04   -0.25577E-04    48   0.825E-02    0.251E-02
DAV:   6    -0.182165758179E+02   -0.93175E-04   -0.12112E-04    32   0.482E-02    0.101E-02
DAV:   7    -0.182167342447E+02   -0.15843E-03   -0.38549E-05    40   0.254E-02    0.457E-03
DAV:   8    -0.182169433524E+02   -0.20911E-03   -0.50481E-05    40   0.271E-02    0.318E-03
DAV:   9    -0.182171318815E+02   -0.18853E-03   -0.56771E-05    40   0.251E-02    0.185E-03
DAV:  10    -0.182172101180E+02   -0.78237E-04   -0.91064E-06    56   0.935E-03    0.104E-03
DAV:  11    -0.182172691880E+02   -0.59070E-04   -0.27149E-06    40   0.570E-03    0.607E-04
DAV:  12    -0.182172949978E+02   -0.25810E-04   -0.54188E-07    48   0.346E-03    0.390E-04
DAV:  13    -0.182173108066E+02   -0.15809E-04   -0.75262E-07    32   0.378E-03    0.194E-04
DAV:  14    -0.182173145839E+02   -0.37773E-05   -0.35714E-07    32   0.219E-03
  14 F= -.18217315E+02 E0= -.18217315E+02  d E =0.556165E-01
quench:  g(F)=  0.000E+00 g(S)=  0.000E+00 dE (1.order)= 0.000E+00
 bond charge predicted
       N       E                     dE             d eps       ncg     rms          rms(c)
DAV:   1    -0.181845202816E+02    0.32791E-01   -0.17382E+00    32   0.703E+00    0.462E-01
DAV:   2    -0.181847743753E+02   -0.25409E-03   -0.22188E-02    56   0.746E-01    0.276E-01
DAV:   3    -0.181842971292E+02    0.47725E-03   -0.61795E-03    48   0.336E-01    0.763E-02
DAV:   4    -0.181842312684E+02    0.65861E-04   -0.59207E-04    32   0.100E-01    0.366E-02
DAV:   5    -0.181842526209E+02   -0.21353E-04   -0.82629E-05    32   0.443E-02    0.106E-02
DAV:   6    -0.181842832449E+02   -0.30624E-04   -0.80885E-06    32   0.145E-02    0.288E-03
DAV:   7    -0.181843226951E+02   -0.39450E-04   -0.54294E-06    40   0.852E-03    0.138E-03
DAV:   8    -0.181843563639E+02   -0.33669E-04   -0.49619E-06    32   0.764E-03    0.822E-04
DAV:   9    -0.181843865376E+02   -0.30174E-04   -0.75747E-06    40   0.860E-03    0.670E-04
DAV:  10    -0.181843968786E+02   -0.10341E-04   -0.12273E-06    40   0.344E-03    0.327E-04
DAV:  11    -0.181844030160E+02   -0.61374E-05   -0.32659E-07    32   0.208E-03
  15 F= -.18184403E+02 E0= -.18184403E+02  d E =0.329116E-01
quench:  g(F)=  0.000E+00 g(S)=  0.000E+00 dE (1.order)= 0.000E+00
 bond charge predicted
       N       E                     dE             d eps       ncg     rms          rms(c)
DAV:   1    -0.182033138978E+02   -0.18917E-01   -0.16668E+00    32   0.758E+00    0.345E-01
DAV:   2    -0.182032644483E+02    0.49449E-04   -0.20170E-02    56   0.767E-01    0.206E-01
DAV:   3    -0.182024481871E+02    0.81626E-03   -0.32068E-03    56   0.253E-01    0.591E-02
DAV:   4    -0.182024333890E+02    0.14798E-04   -0.29674E-04    32   0.836E-02    0.274E-02
DAV:   5    -0.182024413866E+02   -0.79976E-05   -0.31409E-05    48   0.273E-02
  16 F= -.18202441E+02 E0= -.18202441E+02  d E =-.180384E-01
quench:  g(F)=  0.000E+00 g(S)=  0.000E+00 dE (1.order)= 0.000E+00
 bond charge predicted
       N       E                     dE             d eps       ncg     rms          rms(c)
DAV:   1    -0.182192774542E+02   -0.16844E-01   -0.18389E+01    40   0.233E+01    0.158E+00
DAV:   2    -0.182121892891E+02    0.70882E-02   -0.30528E-01    48   0.251E+00    0.974E-01
DAV:   3    -0.182098082061E+02    0.23811E-02   -0.65108E-02    48   0.115E+00    0.386E-01
DAV:   4    -0.182094846099E+02    0.32360E-03   -0.80666E-03    48   0.346E-01    0.150E-01
DAV:   5    -0.182094527776E+02    0.31832E-04   -0.17578E-03    32   0.190E-01    0.411E-02
DAV:   6    -0.182095158126E+02   -0.63035E-04   -0.23330E-04    48   0.649E-02    0.128E-02
DAV:   7    -0.182096002431E+02   -0.84430E-04   -0.32548E-05    32   0.249E-02    0.515E-03
DAV:   8    -0.182096874849E+02   -0.87242E-04   -0.17444E-05    48   0.169E-02    0.199E-03
DAV:   9    -0.182097499980E+02   -0.62513E-04   -0.86281E-06    40   0.105E-02    0.122E-03
DAV:  10    -0.182097871456E+02   -0.37148E-04   -0.45776E-06    48   0.704E-03    0.732E-04
DAV:  11    -0.182098125371E+02   -0.25392E-04   -0.21750E-06    56   0.471E-03    0.372E-04
DAV:  12    -0.182098233410E+02   -0.10804E-04   -0.52580E-07    56   0.255E-03    0.251E-04
DAV:  13    -0.182098285648E+02   -0.52238E-05   -0.23314E-07    48   0.206E-03
  17 F= -.18209829E+02 E0= -.18209829E+02  d E =-.738718E-02
quench:  g(F)=  0.000E+00 g(S)=  0.000E+00 dE (1.order)= 0.000E+00
 bond charge predicted
       N       E                     dE             d eps       ncg     rms          rms(c)
DAV:   1    -0.182487438000E+02   -0.38920E-01   -0.90527E+00    32   0.167E+01    0.102E+00
DAV:   2    -0.182519044471E+02   -0.31606E-02   -0.11590E-01    48   0.167E+00    0.665E-01
DAV:   3    -0.182506455149E+02    0.12589E-02   -0.31405E-02    56   0.808E-01    0.232E-01
DAV:   4    -0.182501972780E+02    0.44824E-03   -0.36291E-03    56   0.237E-01    0.902E-02
DAV:   5    -0.182501954108E+02    0.18673E-05   -0.13907E-03    32   0.158E-01    0.316E-02
DAV:   6    -0.182502692313E+02   -0.73821E-04   -0.13014E-04    48   0.512E-02    0.867E-03
DAV:   7    -0.182503499855E+02   -0.80754E-04   -0.15401E-05    48   0.181E-02    0.281E-03
DAV:   8    -0.182504119990E+02   -0.62013E-04   -0.64125E-06    48   0.947E-03    0.133E-03
DAV:   9    -0.182504661174E+02   -0.54118E-04   -0.64514E-06    48   0.879E-03    0.854E-04
DAV:  10    -0.182504973203E+02   -0.31203E-04   -0.28187E-06    40   0.560E-03    0.463E-04
DAV:  11    -0.182505120939E+02   -0.14774E-04   -0.82460E-07    40   0.314E-03    0.249E-04
DAV:  12    -0.182505162141E+02   -0.41202E-05   -0.10102E-07    32   0.132E-03
  18 F= -.18250516E+02 E0= -.18250516E+02  d E =-.406876E-01
quench:  g(F)=  0.000E+00 g(S)=  0.000E+00 dE (1.order)= 0.000E+00
 bond charge predicted
       N       E                     dE             d eps       ncg     rms          rms(c)
DAV:   1    -0.182309043514E+02    0.19608E-01   -0.50535E+00    32   0.128E+01    0.741E-01
DAV:   2    -0.182200801487E+02    0.10824E-01   -0.89200E-02    48   0.157E+00    0.432E-01
DAV:   3    -0.182150288986E+02    0.50513E-02   -0.25122E-02    48   0.745E-01    0.116E-01
DAV:   4    -0.182149391840E+02    0.89715E-04   -0.89908E-04    32   0.153E-01    0.612E-02
DAV:   5    -0.182150030954E+02   -0.63911E-04   -0.12042E-04    32   0.556E-02    0.185E-02
DAV:   6    -0.182151434971E+02   -0.14040E-03   -0.28849E-05    40   0.264E-02    0.602E-03
DAV:   7    -0.182153724168E+02   -0.22892E-03   -0.28257E-05    48   0.191E-02    0.318E-03
DAV:   8    -0.182156042705E+02   -0.23185E-03   -0.31989E-05    40   0.190E-02    0.301E-03
DAV:   9    -0.182157549788E+02   -0.15071E-03   -0.22893E-05    48   0.160E-02    0.119E-03
DAV:  10    -0.182158049922E+02   -0.50013E-04   -0.28800E-06    40   0.612E-03    0.825E-04
DAV:  11    -0.182158465162E+02   -0.41524E-04   -0.27694E-06    32   0.639E-03    0.643E-04
DAV:  12    -0.182158578853E+02   -0.11369E-04   -0.64279E-07    48   0.339E-03    0.304E-04
DAV:  13    -0.182158615411E+02   -0.36558E-05   -0.13684E-07    32   0.171E-03
  19 F= -.18215862E+02 E0= -.18215862E+02  d E =0.346547E-01
quench:  g(F)=  0.000E+00 g(S)=  0.000E+00 dE (1.order)= 0.000E+00
 bond charge predicted
       N       E                     dE             d eps       ncg     rms          rms(c)
DAV:   1    -0.182773251670E+02   -0.61467E-01   -0.23394E+00    32   0.860E+00    0.559E-01
DAV:   2    -0.182709572985E+02    0.63679E-02   -0.43236E-02    48   0.105E+00    0.320E-01
DAV:   3    -0.182689445738E+02    0.20127E-02   -0.12672E-02    48   0.521E-01    0.101E-01
DAV:   4    -0.182688618637E+02    0.82710E-04   -0.87451E-04    48   0.129E-01    0.489E-02
DAV:   5    -0.182688876159E+02   -0.25752E-04   -0.11782E-04    32   0.527E-02    0.178E-02
DAV:   6    -0.182689060441E+02   -0.18428E-04   -0.21665E-05    40   0.257E-02    0.427E-03
DAV:   7    -0.182689368132E+02   -0.30769E-04   -0.70286E-06    32   0.102E-02    0.243E-03
DAV:   8    -0.182689798858E+02   -0.43073E-04   -0.10542E-05    40   0.115E-02    0.188E-03
DAV:   9    -0.182690214037E+02   -0.41518E-04   -0.12531E-05    40   0.110E-02    0.961E-04
DAV:  10    -0.182690353292E+02   -0.13926E-04   -0.18162E-06    56   0.389E-03    0.723E-04
DAV:  11    -0.182690477258E+02   -0.12397E-04   -0.96028E-07    40   0.286E-03    0.310E-04
DAV:  12    -0.182690541321E+02   -0.64063E-05   -0.26554E-07    48   0.190E-03
  20 F= -.18269054E+02 E0= -.18269054E+02  d E =-.531926E-01
quench:  g(F)=  0.000E+00 g(S)=  0.000E+00 dE (1.order)= 0.000E+00
 bond charge predicted
       N       E                     dE             d eps       ncg     rms          rms(c)
DAV:   1    -0.182771653119E+02   -0.81176E-02   -0.65036E-02    32   0.148E+00    0.741E-02
DAV:   2    -0.182772244887E+02   -0.59177E-04   -0.58005E-04    40   0.129E-01    0.484E-02
DAV:   3    -0.182772150500E+02    0.94387E-05   -0.14761E-04    40   0.517E-02    0.177E-02
DAV:   4    -0.182772093664E+02    0.56836E-05   -0.31732E-05    32   0.205E-02
  21 F= -.18277209E+02 E0= -.18277209E+02  d E =-.815523E-02
quench:  g(F)=  0.000E+00 g(S)=  0.000E+00 dE (1.order)= 0.000E+00
 bond charge predicted
       N       E                     dE             d eps       ncg     rms          rms(c)
DAV:   1    -0.182828863327E+02   -0.56713E-02   -0.29124E-02    32   0.978E-01    0.480E-02
DAV:   2    -0.182828909866E+02   -0.46539E-05   -0.36214E-04    48   0.995E-02    0.299E-02
DAV:   3    -0.182828759807E+02    0.15006E-04   -0.49614E-05    40   0.273E-02    0.106E-02
DAV:   4    -0.182828752440E+02    0.73667E-06   -0.81754E-06    32   0.139E-02
  22 F= -.18282875E+02 E0= -.18282875E+02  d E =-.566588E-02
quench:  g(F)=  0.000E+00 g(S)=  0.000E+00 dE (1.order)= 0.000E+00
 bond charge predicted
       N       E                     dE             d eps       ncg     rms          rms(c)
DAV:   1    -0.182921457558E+02   -0.92698E-02   -0.14115E-01    32   0.212E+00    0.128E-01
DAV:   2    -0.182919732984E+02    0.17246E-03   -0.16821E-03    40   0.208E-01    0.717E-02
DAV:   3    -0.182918524490E+02    0.12085E-03   -0.58004E-04    56   0.107E-01    0.180E-02
DAV:   4    -0.182918548667E+02   -0.24177E-05   -0.31784E-05    32   0.260E-02
  23 F= -.18291855E+02 E0= -.18291855E+02  d E =-.897962E-02
quench:  g(F)=  0.000E+00 g(S)=  0.000E+00 dE (1.order)= 0.000E+00
 bond charge predicted
       N       E                     dE             d eps       ncg     rms          rms(c)
DAV:   1    -0.182915459035E+02    0.30655E-03   -0.13116E-02    32   0.649E-01    0.353E-02
DAV:   2    -0.182915582044E+02   -0.12301E-04   -0.20083E-04    40   0.731E-02    0.210E-02
DAV:   3    -0.182915663662E+02   -0.81617E-05   -0.29527E-05    40   0.222E-02
  24 F= -.18291566E+02 E0= -.18291566E+02  d E =0.288501E-03
quench:  g(F)=  0.000E+00 g(S)=  0.000E+00 dE (1.order)= 0.000E+00
 bond charge predicted
       N       E                     dE             d eps       ncg     rms          rms(c)
DAV:   1    -0.182956110286E+02   -0.40528E-02   -0.20636E-02    40   0.780E-01    0.522E-02
DAV:   2    -0.182956112623E+02   -0.23370E-06   -0.29505E-04    40   0.865E-02    0.286E-02
DAV:   3    -0.182956067384E+02    0.45240E-05   -0.61465E-05    40   0.344E-02
  25 F= -.18295607E+02 E0= -.18295607E+02  d E =-.404037E-02
quench:  g(F)=  0.000E+00 g(S)=  0.000E+00 dE (1.order)= 0.000E+00
 bond charge predicted
       N       E                     dE             d eps       ncg     rms          rms(c)
DAV:   1    -0.182991421921E+02   -0.35309E-02   -0.10074E-01    32   0.177E+00    0.108E-01
DAV:   2    -0.182991856074E+02   -0.43415E-04   -0.10176E-03    40   0.164E-01    0.615E-02
DAV:   3    -0.182991459938E+02    0.39614E-04   -0.16909E-04    40   0.545E-02    0.142E-02
DAV:   4    -0.182991477724E+02   -0.17786E-05   -0.29920E-05    48   0.207E-02
  26 F= -.18299148E+02 E0= -.18299148E+02  d E =-.354103E-02
quench:  g(F)=  0.000E+00 g(S)=  0.000E+00 dE (1.order)= 0.000E+00
 bond charge predicted
       N       E                     dE             d eps       ncg     rms          rms(c)
DAV:   1    -0.182934641143E+02    0.56819E-02   -0.15053E+00    32   0.695E+00    0.377E-01
DAV:   2    -0.182936412008E+02   -0.17709E-03   -0.21651E-02    40   0.741E-01    0.216E-01
DAV:   3    -0.182930897195E+02    0.55148E-03   -0.47152E-03    56   0.264E-01    0.763E-02
DAV:   4    -0.182930249710E+02    0.64748E-04   -0.63641E-04    32   0.104E-01    0.346E-02
DAV:   5    -0.182930217936E+02    0.31775E-05   -0.80807E-05    32   0.420E-02
  27 F= -.18293022E+02 E0= -.18293022E+02  d E =0.612598E-02
quench:  g(F)=  0.000E+00 g(S)=  0.000E+00 dE (1.order)= 0.000E+00
 bond charge predicted
       N       E                     dE             d eps       ncg     rms          rms(c)
DAV:   1    -0.182977311192E+02   -0.47061E-02   -0.62041E-01    32   0.435E+00    0.249E-01
DAV:   2    -0.182969558944E+02    0.77522E-03   -0.87081E-03    40   0.504E-01    0.147E-01
DAV:   3    -0.182965088094E+02    0.44709E-03   -0.35802E-03    48   0.273E-01    0.389E-02
DAV:   4    -0.182965004977E+02    0.83117E-05   -0.25673E-04    48   0.740E-02    0.199E-02
DAV:   5    -0.182965106205E+02   -0.10123E-04   -0.15093E-05    40   0.220E-02    0.607E-03
DAV:   6    -0.182965198575E+02   -0.92370E-05   -0.23751E-06    56   0.891E-03
  28 F= -.18296520E+02 E0= -.18296520E+02  d E =-.349806E-02
quench:  g(F)=  0.000E+00 g(S)=  0.000E+00 dE (1.order)= 0.000E+00
 bond charge predicted
       N       E                     dE             d eps       ncg     rms          rms(c)
DAV:   1    -0.183010401580E+02   -0.45295E-02   -0.14050E-01    32   0.208E+00    0.136E-01
DAV:   2    -0.183010411188E+02   -0.96084E-06   -0.15089E-03    48   0.193E-01    0.837E-02
DAV:   3    -0.183009936071E+02    0.47512E-04   -0.55644E-04    32   0.112E-01    0.272E-02
DAV:   4    -0.183009843193E+02    0.92878E-05   -0.76562E-05    32   0.360E-02
  29 F= -.18300984E+02 E0= -.18300984E+02  d E =-.446446E-02
quench:  g(F)=  0.000E+00 g(S)=  0.000E+00 dE (1.order)= 0.000E+00
 bond charge predicted
       N       E                     dE             d eps       ncg     rms          rms(c)
DAV:   1    -0.183099301615E+02   -0.89366E-02   -0.79441E-02    32   0.162E+00    0.827E-02
DAV:   2    -0.183099058556E+02    0.24306E-04   -0.90371E-04    40   0.154E-01    0.470E-02
DAV:   3    -0.183098597060E+02    0.46150E-04   -0.18910E-04    40   0.588E-02    0.113E-02
DAV:   4    -0.183098603889E+02   -0.68291E-06   -0.17531E-05    32   0.177E-02
  30 F= -.18309860E+02 E0= -.18309860E+02  d E =-.887607E-02
quench:  g(F)=  0.000E+00 g(S)=  0.000E+00 dE (1.order)= 0.000E+00
 bond charge predicted
       N       E                     dE             d eps       ncg     rms          rms(c)
DAV:   1    -0.183206206864E+02   -0.10761E-01   -0.78912E-02    32   0.159E+00    0.914E-02
DAV:   2    -0.183206101005E+02    0.10586E-04   -0.68557E-04    40   0.129E-01    0.520E-02
DAV:   3    -0.183205665923E+02    0.43508E-04   -0.13428E-04    56   0.442E-02    0.111E-02
DAV:   4    -0.183205698918E+02   -0.32996E-05   -0.17069E-05    32   0.163E-02
  31 F= -.18320570E+02 E0= -.18320570E+02  d E =-.107095E-01
quench:  g(F)=  0.000E+00 g(S)=  0.000E+00 dE (1.order)= 0.000E+00
 bond charge predicted
       N       E                     dE             d eps       ncg     rms          rms(c)
DAV:   1    -0.183563357075E+02   -0.35769E-01   -0.90019E-01    32   0.528E+00    0.336E-01
DAV:   2    -0.183559026147E+02    0.43309E-03   -0.75519E-03    40   0.406E-01    0.181E-01
DAV:   3    -0.183555214745E+02    0.38114E-03   -0.15212E-03    48   0.137E-01    0.331E-02
DAV:   4    -0.183555490679E+02   -0.27593E-04   -0.13920E-04    32   0.461E-02    0.141E-02
DAV:   5    -0.183555709379E+02   -0.21870E-04   -0.16495E-05    40   0.185E-02    0.446E-03
DAV:   6    -0.183556075268E+02   -0.36589E-04   -0.49705E-06    32   0.922E-03    0.213E-03
DAV:   7    -0.183556689476E+02   -0.61421E-04   -0.95227E-06    48   0.980E-03    0.135E-03
DAV:   8    -0.183557039856E+02   -0.35038E-04   -0.35171E-06    40   0.583E-03    0.846E-04
DAV:   9    -0.183557428751E+02   -0.38889E-04   -0.75954E-06    40   0.820E-03    0.505E-04
DAV:  10    -0.183557548257E+02   -0.11951E-04   -0.45416E-07    56   0.238E-03    0.291E-04
DAV:  11    -0.183557643392E+02   -0.95135E-05   -0.41197E-07    32   0.254E-03
  32 F= -.18355764E+02 E0= -.18355764E+02  d E =-.351944E-01
quench:  g(F)=  0.000E+00 g(S)=  0.000E+00 dE (1.order)= 0.000E+00
 bond charge predicted
       N       E                     dE             d eps       ncg     rms          rms(c)
DAV:   1    -0.185056766073E+02   -0.14992E+00   -0.29565E+01    40   0.307E+01    0.169E+00
DAV:   2    -0.185028624064E+02    0.28142E-02   -0.33995E-01    48   0.287E+00    0.996E-01
DAV:   3    -0.184941200269E+02    0.87424E-02   -0.40099E-02    48   0.811E-01    0.226E-01
DAV:   4    -0.184940576924E+02    0.62334E-04   -0.47675E-03    32   0.314E-01    0.890E-02
DAV:   5    -0.184940658088E+02   -0.81164E-05   -0.40374E-04    48   0.940E-02    0.410E-02
DAV:   6    -0.184943193118E+02   -0.25350E-03   -0.13938E-04    32   0.654E-02    0.934E-03
DAV:   7    -0.184945792204E+02   -0.25991E-03   -0.32921E-05    40   0.225E-02    0.506E-03
DAV:   8    -0.184949776811E+02   -0.39846E-03   -0.75861E-05    40   0.276E-02    0.264E-03
DAV:   9    -0.184951876512E+02   -0.20997E-03   -0.33058E-05    48   0.165E-02    0.204E-03
DAV:  10    -0.184953670952E+02   -0.17944E-03   -0.37406E-05    32   0.184E-02    0.131E-03
DAV:  11    -0.184954038054E+02   -0.36710E-04   -0.26139E-06    48   0.716E-03    0.915E-04
DAV:  12    -0.184954303941E+02   -0.26589E-04   -0.11723E-06    32   0.547E-03    0.433E-04
DAV:  13    -0.184954443491E+02   -0.13955E-04   -0.78509E-07    48   0.322E-03    0.248E-04
DAV:  14    -0.184954509255E+02   -0.65764E-05   -0.40307E-07    32   0.200E-03
  33 F= -.18495451E+02 E0= -.18495451E+02  d E =-.139687E+00
quench:  g(F)=  0.000E+00 g(S)=  0.000E+00 dE (1.order)= 0.000E+00
 bond charge predicted
       N       E                     dE             d eps       ncg     rms          rms(c)
DAV:   1    -0.184445427932E+02    0.50902E-01   -0.12262E+01    40   0.199E+01    0.107E+00
DAV:   2    -0.184449073357E+02   -0.36454E-03   -0.20136E-01    48   0.218E+00    0.672E-01
DAV:   3    -0.184396153727E+02    0.52920E-02   -0.22331E-02    48   0.625E-01    0.246E-01
DAV:   4    -0.184392741439E+02    0.34123E-03   -0.42858E-03    40   0.317E-01    0.733E-02
DAV:   5    -0.184392725615E+02    0.15824E-05   -0.72955E-04    32   0.125E-01    0.281E-02
DAV:   6    -0.184393515383E+02   -0.78977E-04   -0.75765E-05    40   0.434E-02    0.904E-03
DAV:   7    -0.184394399507E+02   -0.88412E-04   -0.17887E-05    32   0.172E-02    0.334E-03
DAV:   8    -0.184395085992E+02   -0.68649E-04   -0.10009E-05    40   0.107E-02    0.174E-03
DAV:   9    -0.184395968879E+02   -0.88289E-04   -0.21861E-05    32   0.141E-02    0.104E-03
DAV:  10    -0.184396195409E+02   -0.22653E-04   -0.29508E-06    48   0.447E-03    0.720E-04
DAV:  11    -0.184396448333E+02   -0.25292E-04   -0.32510E-06    32   0.491E-03    0.428E-04
DAV:  12    -0.184396507661E+02   -0.59329E-05   -0.21910E-07    48   0.154E-03
  34 F= -.18439651E+02 E0= -.18439651E+02  d E =0.558002E-01
quench:  g(F)=  0.000E+00 g(S)=  0.000E+00 dE (1.order)= 0.000E+00
 bond charge predicted
       N       E                     dE             d eps       ncg     rms          rms(c)
DAV:   1    -0.180970949709E+02    0.34255E+00   -0.71036E+01    40   0.475E+01    0.264E+00
DAV:   2    -0.181218471082E+02   -0.24752E-01   -0.11911E+00    48   0.503E+00    0.159E+00
DAV:   3    -0.181063523408E+02    0.15495E-01   -0.11726E-01    48   0.119E+00    0.673E-01
DAV:   4    -0.181057081255E+02    0.64422E-03   -0.21479E-02    56   0.607E-01    0.184E-01
DAV:   5    -0.181056726698E+02    0.35456E-04   -0.14633E-03    32   0.204E-01    0.768E-02
DAV:   6    -0.181058603374E+02   -0.18767E-03   -0.63789E-04    40   0.116E-01    0.188E-02
DAV:   7    -0.181061541669E+02   -0.29383E-03   -0.10238E-04    40   0.493E-02    0.120E-02
DAV:   8    -0.181069466350E+02   -0.79247E-03   -0.31305E-04    32   0.760E-02    0.610E-03
DAV:   9    -0.181074191700E+02   -0.47254E-03   -0.11793E-04    40   0.371E-02    0.504E-03
DAV:  10    -0.181078289418E+02   -0.40977E-03   -0.10482E-04    40   0.320E-02    0.352E-03
DAV:  11    -0.181079990710E+02   -0.17013E-03   -0.24863E-05    56   0.179E-02    0.131E-03
DAV:  12    -0.181080784631E+02   -0.79392E-04   -0.36818E-06    32   0.944E-03    0.854E-04
DAV:  13    -0.181081441626E+02   -0.65699E-04   -0.61071E-06    48   0.876E-03    0.439E-04
DAV:  14    -0.181081586255E+02   -0.14463E-04   -0.60533E-07    40   0.271E-03    0.276E-04
DAV:  15    -0.181081668326E+02   -0.82071E-05   -0.33417E-07    32   0.197E-03
  35 F= -.18108167E+02 E0= -.18108167E+02  d E =0.331484E+00
quench:  g(F)=  0.000E+00 g(S)=  0.000E+00 dE (1.order)= 0.000E+00
 bond charge predicted
       N       E                     dE             d eps       ncg     rms          rms(c)
DAV:   1    -0.184265631851E+02   -0.31840E+00   -0.64656E+01    32   0.452E+01    0.249E+00
DAV:   2    -0.184325278861E+02   -0.59647E-02   -0.71277E-01    48   0.433E+00    0.149E+00
DAV:   3    -0.184101636015E+02    0.22364E-01   -0.13503E-01    48   0.138E+00    0.312E-01
DAV:   4    -0.184098098964E+02    0.35371E-03   -0.27771E-03    40   0.270E-01    0.163E-01
DAV:   5    -0.184099816061E+02   -0.17171E-03   -0.24883E-03    32   0.230E-01    0.281E-02
DAV:   6    -0.184103951639E+02   -0.41356E-03   -0.14227E-04    48   0.618E-02    0.159E-02
DAV:   7    -0.184111615485E+02   -0.76638E-03   -0.16259E-04    32   0.543E-02    0.904E-03
DAV:   8    -0.184118156239E+02   -0.65408E-03   -0.87735E-05    40   0.338E-02    0.646E-03
DAV:   9    -0.184129117022E+02   -0.10961E-02   -0.37893E-04    40   0.621E-02    0.370E-03
DAV:  10    -0.184131396845E+02   -0.22798E-03   -0.45338E-05    48   0.211E-02    0.250E-03
DAV:  11    -0.184133002737E+02   -0.16059E-03   -0.18815E-05    32   0.166E-02    0.119E-03
DAV:  12    -0.184133641608E+02   -0.63887E-04   -0.68580E-06    32   0.103E-02    0.852E-04
DAV:  13    -0.184134127713E+02   -0.48611E-04   -0.31533E-06    56   0.597E-03    0.638E-04
DAV:  14    -0.184134215222E+02   -0.87510E-05   -0.25697E-07    32   0.173E-03
  36 F= -.18413422E+02 E0= -.18413422E+02  d E =-.305255E+00
quench:  g(F)=  0.000E+00 g(S)=  0.000E+00 dE (1.order)= 0.000E+00
 bond charge predicted
       N       E                     dE             d eps       ncg     rms          rms(c)
DAV:   1    -0.184404300637E+02   -0.27017E-01   -0.61974E+00    32   0.139E+01    0.875E-01
DAV:   2    -0.184406694253E+02   -0.23936E-03   -0.83386E-02    40   0.137E+00    0.551E-01
DAV:   3    -0.184404440947E+02    0.22533E-03   -0.20327E-02    40   0.644E-01    0.212E-01
DAV:   4    -0.184401054199E+02    0.33867E-03   -0.44836E-03    48   0.243E-01    0.791E-02
DAV:   5    -0.184400682979E+02    0.37122E-04   -0.79308E-04    40   0.126E-01    0.263E-02
DAV:   6    -0.184400905212E+02   -0.22223E-04   -0.82333E-05    32   0.424E-02    0.700E-03
DAV:   7    -0.184401220573E+02   -0.31536E-04   -0.11637E-05    32   0.150E-02    0.331E-03
DAV:   8    -0.184401449711E+02   -0.22914E-04   -0.65671E-06    40   0.101E-02    0.155E-03
DAV:   9    -0.184401630789E+02   -0.18108E-04   -0.41369E-06    40   0.714E-03    0.129E-03
DAV:  10    -0.184401733118E+02   -0.10233E-04   -0.21590E-06    40   0.508E-03    0.489E-04
DAV:  11    -0.184401795109E+02   -0.61991E-05   -0.91500E-07    40   0.319E-03
  37 F= -.18440180E+02 E0= -.18440180E+02  d E =-.267580E-01
quench:  g(F)=  0.000E+00 g(S)=  0.000E+00 dE (1.order)= 0.000E+00
 bond charge predicted
       N       E                     dE             d eps       ncg     rms          rms(c)
DAV:   1    -0.184531860308E+02   -0.13013E-01   -0.24329E+00    32   0.853E+00    0.583E-01
DAV:   2    -0.184504048306E+02    0.27812E-02   -0.49417E-02    40   0.105E+00    0.364E-01
DAV:   3    -0.184493087083E+02    0.10961E-02   -0.89681E-03    56   0.454E-01    0.142E-01
DAV:   4    -0.184492780596E+02    0.30649E-04   -0.59369E-04    32   0.135E-01    0.531E-02
DAV:   5    -0.184493578003E+02   -0.79741E-04   -0.20067E-04    32   0.670E-02    0.137E-02
DAV:   6    -0.184494107280E+02   -0.52928E-04   -0.31941E-05    40   0.236E-02    0.463E-03
DAV:   7    -0.184494516434E+02   -0.40915E-04   -0.69019E-06    40   0.102E-02    0.236E-03
DAV:   8    -0.184495034716E+02   -0.51828E-04   -0.54746E-06    32   0.880E-03    0.100E-03
DAV:   9    -0.184495418744E+02   -0.38403E-04   -0.40051E-06    48   0.637E-03    0.759E-04
DAV:  10    -0.184495638681E+02   -0.21994E-04   -0.25080E-06    32   0.534E-03    0.406E-04
DAV:  11    -0.184495729935E+02   -0.91254E-05   -0.59837E-07    48   0.284E-03
  38 F= -.18449573E+02 E0= -.18449573E+02  d E =-.939348E-02
quench:  g(F)=  0.000E+00 g(S)=  0.000E+00 dE (1.order)= 0.000E+00
 bond charge predicted
       N       E                     dE             d eps       ncg     rms          rms(c)
DAV:   1    -0.184164760958E+02    0.33088E-01   -0.65316E-01    32   0.459E+00    0.259E-01
DAV:   2    -0.184166413628E+02   -0.16527E-03   -0.57713E-03    40   0.364E-01    0.156E-01
DAV:   3    -0.184164608971E+02    0.18047E-03   -0.14744E-03    40   0.157E-01    0.442E-02
DAV:   4    -0.184164366693E+02    0.24228E-04   -0.24193E-04    32   0.604E-02    0.180E-02
DAV:   5    -0.184164387730E+02   -0.21037E-05   -0.30638E-05    32   0.267E-02
  39 F= -.18416439E+02 E0= -.18416439E+02  d E =0.331342E-01
quench:  g(F)=  0.000E+00 g(S)=  0.000E+00 dE (1.order)= 0.000E+00
 bond charge predicted
       N       E                     dE             d eps       ncg     rms          rms(c)
DAV:   1    -0.182807311662E+02    0.13571E+00   -0.14570E+01    40   0.215E+01    0.120E+00
DAV:   2    -0.182766549928E+02    0.40762E-02   -0.16252E-01    48   0.192E+00    0.682E-01
DAV:   3    -0.182724589778E+02    0.41960E-02   -0.25208E-02    56   0.562E-01    0.182E-01
DAV:   4    -0.182722396714E+02    0.21931E-03   -0.32021E-03    48   0.244E-01    0.714E-02
DAV:   5    -0.182722730687E+02   -0.33397E-04   -0.34464E-04    32   0.909E-02    0.296E-02
DAV:   6    -0.182723945678E+02   -0.12150E-03   -0.13327E-04    48   0.484E-02    0.908E-03
DAV:   7    -0.182725607851E+02   -0.16622E-03   -0.31200E-05    32   0.243E-02    0.487E-03
DAV:   8    -0.182729129169E+02   -0.35213E-03   -0.10242E-04    40   0.349E-02    0.264E-03
DAV:   9    -0.182730935891E+02   -0.18067E-03   -0.35813E-05    48   0.181E-02    0.183E-03
DAV:  10    -0.182732127161E+02   -0.11913E-03   -0.13671E-05    40   0.106E-02    0.106E-03
DAV:  11    -0.182732717416E+02   -0.59025E-04   -0.34485E-06    56   0.658E-03    0.548E-04
DAV:  12    -0.182732973525E+02   -0.25611E-04   -0.94726E-07    32   0.483E-03    0.357E-04
DAV:  13    -0.182733126632E+02   -0.15311E-04   -0.12680E-06    32   0.429E-03    0.182E-04
DAV:  14    -0.182733169032E+02   -0.42401E-05   -0.22967E-07    32   0.166E-03
  40 F= -.18273317E+02 E0= -.18273317E+02  d E =0.143122E+00
quench:  g(F)=  0.000E+00 g(S)=  0.000E+00 dE (1.order)= 0.000E+00
 bond charge predicted
       N       E                     dE             d eps       ncg     rms          rms(c)
DAV:   1    -0.182889256399E+02   -0.15613E-01   -0.10141E+00    32   0.575E+00    0.338E-01
DAV:   2    -0.182866165717E+02    0.23091E-02   -0.17110E-02    48   0.671E-01    0.188E-01
DAV:   3    -0.182856957077E+02    0.92086E-03   -0.46846E-03    48   0.317E-01    0.538E-02
DAV:   4    -0.182856643151E+02    0.31393E-04   -0.26760E-04    32   0.748E-02    0.282E-02
DAV:   5    -0.182856963003E+02   -0.31985E-04   -0.62465E-05    32   0.351E-02    0.104E-02
DAV:   6    -0.182857222558E+02   -0.25955E-04   -0.14909E-05    40   0.184E-02    0.339E-03
DAV:   7    -0.182857920357E+02   -0.69780E-04   -0.11293E-05    40   0.125E-02    0.197E-03
DAV:   8    -0.182858300887E+02   -0.38053E-04   -0.40578E-06    48   0.665E-03    0.116E-03
DAV:   9    -0.182858858455E+02   -0.55757E-04   -0.94294E-06    40   0.942E-03    0.567E-04
DAV:  10    -0.182859054976E+02   -0.19652E-04   -0.14668E-06    48   0.399E-03    0.349E-04
DAV:  11    -0.182859189240E+02   -0.13426E-04   -0.57306E-07    32   0.267E-03    0.207E-04
DAV:  12    -0.182859242992E+02   -0.53752E-05   -0.27807E-07    48   0.272E-03
  41 F= -.18285924E+02 E0= -.18285924E+02  d E =-.126074E-01
quench:  g(F)=  0.000E+00 g(S)=  0.000E+00 dE (1.order)= 0.000E+00
 bond charge predicted
       N       E                     dE             d eps       ncg     rms          rms(c)
DAV:   1    -0.183504039102E+02   -0.64485E-01   -0.29492E+00    48   0.974E+00    0.503E-01
DAV:   2    -0.183504478161E+02   -0.43906E-04   -0.40902E-02    48   0.999E-01    0.314E-01
DAV:   3    -0.183493988803E+02    0.10489E-02   -0.43654E-03    48   0.271E-01    0.114E-01
DAV:   4    -0.183492517117E+02    0.14717E-03   -0.86936E-04    48   0.145E-01    0.279E-02
DAV:   5    -0.183492620109E+02   -0.10299E-04   -0.96049E-05    32   0.476E-02    0.127E-02
DAV:   6    -0.183492843111E+02   -0.22300E-04   -0.22790E-05    32   0.214E-02    0.335E-03
DAV:   7    -0.183493084448E+02   -0.24134E-04   -0.39950E-06    48   0.785E-03    0.148E-03
DAV:   8    -0.183493420986E+02   -0.33654E-04   -0.52115E-06    48   0.725E-03    0.665E-04
DAV:   9    -0.183493659062E+02   -0.23808E-04   -0.38518E-06    40   0.588E-03    0.523E-04
DAV:  10    -0.183493830256E+02   -0.17119E-04   -0.20746E-06    40   0.433E-03    0.255E-04
DAV:  11    -0.183493892640E+02   -0.62384E-05   -0.28704E-07    32   0.205E-03
  42 F= -.18349389E+02 E0= -.18349389E+02  d E =-.634650E-01
quench:  g(F)=  0.000E+00 g(S)=  0.000E+00 dE (1.order)= 0.000E+00
 bond charge predicted
       N       E                     dE             d eps       ncg     rms          rms(c)
DAV:   1    -0.183465177355E+02    0.28653E-02   -0.18067E-01    32   0.237E+00    0.160E-01
DAV:   2    -0.183464742134E+02    0.43522E-04   -0.18424E-03    40   0.201E-01    0.914E-02
DAV:   3    -0.183463903340E+02    0.83879E-04   -0.50267E-04    48   0.977E-02    0.250E-02
DAV:   4    -0.183463870336E+02    0.33004E-05   -0.64652E-05    32   0.322E-02
  43 F= -.18346387E+02 E0= -.18346387E+02  d E =0.300223E-02
quench:  g(F)=  0.000E+00 g(S)=  0.000E+00 dE (1.order)= 0.000E+00
 bond charge predicted
       N       E                     dE             d eps       ncg     rms          rms(c)
DAV:   1    -0.182362462523E+02    0.11014E+00   -0.96069E+00    32   0.177E+01    0.936E-01
DAV:   2    -0.182319288135E+02    0.43174E-02   -0.11462E-01    48   0.168E+00    0.523E-01
DAV:   3    -0.182284087829E+02    0.35200E-02   -0.20845E-02    56   0.545E-01    0.159E-01
DAV:   4    -0.182282008564E+02    0.20793E-03   -0.29071E-03    40   0.220E-01    0.655E-02
DAV:   5    -0.182282026129E+02   -0.17565E-05   -0.30553E-04    32   0.873E-02    0.265E-02
DAV:   6    -0.182282786717E+02   -0.76059E-04   -0.12161E-04    56   0.430E-02    0.854E-03
DAV:   7    -0.182284157820E+02   -0.13711E-03   -0.27646E-05    32   0.231E-02    0.418E-03
DAV:   8    -0.182286484130E+02   -0.23263E-03   -0.57138E-05    40   0.265E-02    0.272E-03
DAV:   9    -0.182288338583E+02   -0.18545E-03   -0.50046E-05    40   0.218E-02    0.159E-03
DAV:  10    -0.182289022081E+02   -0.68350E-04   -0.62814E-06    56   0.715E-03    0.103E-03
DAV:  11    -0.182289701072E+02   -0.67899E-04   -0.42832E-06    40   0.681E-03    0.473E-04
DAV:  12    -0.182289889140E+02   -0.18807E-04   -0.55670E-07    48   0.371E-03    0.336E-04
DAV:  13    -0.182290021241E+02   -0.13210E-04   -0.82814E-07    32   0.378E-03    0.178E-04
DAV:  14    -0.182290062216E+02   -0.40975E-05   -0.22748E-07    32   0.171E-03
  44 F= -.18229006E+02 E0= -.18229006E+02  d E =0.117381E+00
quench:  g(F)=  0.000E+00 g(S)=  0.000E+00 dE (1.order)= 0.000E+00
 bond charge predicted
       N       E                     dE             d eps       ncg     rms          rms(c)
DAV:   1    -0.183579291630E+02   -0.12893E+00   -0.96314E+00    32   0.173E+01    0.107E+00
DAV:   2    -0.183524833757E+02    0.54458E-02   -0.81648E-02    48   0.143E+00    0.589E-01
DAV:   3    -0.183491291300E+02    0.33542E-02   -0.23383E-02    48   0.571E-01    0.117E-01
DAV:   4    -0.183491176265E+02    0.11503E-04   -0.11034E-03    32   0.142E-01    0.618E-02
DAV:   5    -0.183492488339E+02   -0.13121E-03   -0.38468E-04    32   0.932E-02    0.183E-02
DAV:   6    -0.183493770822E+02   -0.12825E-03   -0.42910E-05    48   0.276E-02    0.862E-03
DAV:   7    -0.183496214336E+02   -0.24435E-03   -0.45998E-05    40   0.261E-02    0.526E-03
DAV:   8    -0.183498176429E+02   -0.19621E-03   -0.24673E-05    48   0.164E-02    0.316E-03
DAV:   9    -0.183500786454E+02   -0.26100E-03   -0.48009E-05    48   0.214E-02    0.158E-03
DAV:  10    -0.183502147879E+02   -0.13614E-03   -0.20858E-05    40   0.140E-02    0.102E-03
DAV:  11    -0.183502789951E+02   -0.64207E-04   -0.48156E-06    32   0.860E-03    0.451E-04
DAV:  12    -0.183502974818E+02   -0.18487E-04   -0.10130E-06    48   0.445E-03    0.378E-04
DAV:  13    -0.183503054325E+02   -0.79507E-05   -0.44514E-07    32   0.259E-03
  45 F= -.18350305E+02 E0= -.18350305E+02  d E =-.121299E+00
quench:  g(F)=  0.000E+00 g(S)=  0.000E+00 dE (1.order)= 0.000E+00
 bond charge predicted
       N       E                     dE             d eps       ncg     rms          rms(c)
DAV:   1    -0.151195453433E+02    0.32308E+01   -0.13955E+02    32   0.673E+01    0.453E+00
DAV:   2    -0.146731498226E+02    0.44640E+00   -0.31771E+00    48   0.102E+01    0.288E+00
DAV:   3    -0.144724624045E+02    0.20069E+00   -0.16606E+00    56   0.624E+00    0.747E-01
DAV:   4    -0.144579905585E+02    0.14472E-01   -0.10032E-01    56   0.158E+00    0.352E-01
DAV:   5    -0.144556884566E+02    0.23021E-02   -0.36781E-03    48   0.362E-01    0.970E-02
DAV:   6    -0.144556128756E+02    0.75581E-04   -0.85670E-04    40   0.162E-01    0.329E-02
DAV:   7    -0.144571945187E+02   -0.15816E-02   -0.73901E-04    32   0.129E-01    0.181E-02
DAV:   8    -0.144585068883E+02   -0.13124E-02   -0.32791E-04    32   0.745E-02    0.124E-02
DAV:   9    -0.144602582438E+02   -0.17514E-02   -0.84060E-04    40   0.101E-01    0.777E-03
DAV:  10    -0.144607394846E+02   -0.48124E-03   -0.13854E-04    48   0.442E-02    0.405E-03
DAV:  11    -0.144610745899E+02   -0.33511E-03   -0.62002E-05    32   0.277E-02    0.254E-03
DAV:  12    -0.144612271419E+02   -0.15255E-03   -0.19821E-05    56   0.135E-02    0.203E-03
DAV:  13    -0.144612941478E+02   -0.67006E-04   -0.27280E-06    32   0.660E-03    0.884E-04
DAV:  14    -0.144613312224E+02   -0.37075E-04   -0.18264E-06    48   0.411E-03    0.587E-04
DAV:  15    -0.144613477962E+02   -0.16574E-04   -0.65702E-07    32   0.224E-03    0.261E-04
DAV:  16    -0.144613548976E+02   -0.71014E-05   -0.25716E-07    48   0.152E-03
  46 F= -.14461355E+02 E0= -.14461355E+02  d E =0.388895E+01
quench:  g(F)=  0.000E+00 g(S)=  0.000E+00 dE (1.order)= 0.000E+00
 bond charge predicted
       N       E                     dE             d eps       ncg     rms          rms(c)
DAV:   1    -0.178811376376E+02   -0.34198E+01   -0.52310E+02    40   0.129E+02    0.886E+00
DAV:   2    -0.160903048520E+02    0.17908E+01   -0.18893E+01    32   0.181E+01    0.460E+00
DAV:   3    -0.159220931788E+02    0.16821E+00   -0.34162E+00    56   0.699E+00    0.255E+00
DAV:   4    -0.158423012940E+02    0.79792E-01   -0.83004E-01    56   0.313E+00    0.100E+00
DAV:   5    -0.158475719925E+02   -0.52707E-02   -0.11969E-01    48   0.146E+00    0.270E-01
DAV:   6    -0.158477106675E+02   -0.13867E-03   -0.87184E-03    48   0.406E-01    0.100E-01
DAV:   7    -0.158480663485E+02   -0.35568E-03   -0.18924E-03    48   0.217E-01    0.537E-02
DAV:   8    -0.158482350442E+02   -0.16870E-03   -0.52620E-04    40   0.871E-02    0.226E-02
DAV:   9    -0.158487214601E+02   -0.48642E-03   -0.31491E-04    32   0.813E-02    0.142E-02
DAV:  10    -0.158503226635E+02   -0.16012E-02   -0.84029E-04    32   0.118E-01    0.161E-02
DAV:  11    -0.158512017144E+02   -0.87905E-03   -0.43096E-04    32   0.705E-02    0.130E-02
DAV:  12    -0.158514406676E+02   -0.23895E-03   -0.75638E-05    48   0.316E-02    0.397E-03
DAV:  13    -0.158516756314E+02   -0.23496E-03   -0.31600E-05    48   0.248E-02    0.467E-03
DAV:  14    -0.158517979453E+02   -0.12231E-03   -0.29427E-05    32   0.190E-02    0.396E-03
DAV:  15    -0.158518559149E+02   -0.57970E-04   -0.11944E-05    48   0.111E-02    0.224E-03
DAV:  16    -0.158518732592E+02   -0.17344E-04   -0.20376E-06    48   0.538E-03    0.489E-04
DAV:  17    -0.158518884305E+02   -0.15171E-04   -0.43763E-07    32   0.332E-03    0.583E-04
DAV:  18    -0.158518924593E+02   -0.40288E-05   -0.21564E-07    32   0.210E-03
  47 F= -.15851892E+02 E0= -.15851892E+02  d E =-.139054E+01
quench:  g(F)=  0.000E+00 g(S)=  0.000E+00 dE (1.order)= 0.000E+00
 bond charge predicted
       N       E                     dE             d eps       ncg     rms          rms(c)
DAV:   1    -0.173724950022E+02   -0.15206E+01   -0.16419E+01    48   0.229E+01    0.167E+00
DAV:   2    -0.173463818306E+02    0.26113E-01   -0.15503E+00    48   0.437E+00    0.122E+00
DAV:   3    -0.173233880336E+02    0.22994E-01   -0.17646E-01    48   0.150E+00    0.531E-01
DAV:   4    -0.173188110341E+02    0.45770E-02   -0.35914E-02    40   0.886E-01    0.189E-01
DAV:   5    -0.173182558365E+02    0.55520E-03   -0.67840E-03    32   0.333E-01    0.567E-02
DAV:   6    -0.173186614045E+02   -0.40557E-03   -0.78719E-04    32   0.136E-01    0.221E-02
DAV:   7    -0.173190188064E+02   -0.35740E-03   -0.95203E-05    32   0.522E-02    0.860E-03
DAV:   8    -0.173196631661E+02   -0.64436E-03   -0.10491E-04    32   0.397E-02    0.443E-03
DAV:   9    -0.173201777475E+02   -0.51458E-03   -0.87690E-05    48   0.319E-02    0.352E-03
DAV:  10    -0.173205836548E+02   -0.40591E-03   -0.10379E-04    32   0.346E-02    0.178E-03
DAV:  11    -0.173206335092E+02   -0.49854E-04   -0.48725E-06    48   0.105E-02    0.124E-03
DAV:  12    -0.173206876340E+02   -0.54125E-04   -0.35027E-06    32   0.868E-03    0.677E-04
DAV:  13    -0.173207208562E+02   -0.33222E-04   -0.16373E-06    32   0.601E-03    0.412E-04
DAV:  14    -0.173207340699E+02   -0.13214E-04   -0.53253E-07    48   0.277E-03    0.249E-04
DAV:  15    -0.173207375205E+02   -0.34506E-05   -0.65693E-08    32   0.958E-04
  48 F= -.17320738E+02 E0= -.17320738E+02  d E =-.146885E+01
quench:  g(F)=  0.000E+00 g(S)=  0.000E+00 dE (1.order)= 0.000E+00
 bond charge predicted
       N       E                     dE             d eps       ncg     rms          rms(c)
DAV:   1    -0.189006040498E+02   -0.15799E+01   -0.83604E+01    48   0.504E+01    0.317E+00
DAV:   2    -0.187431801056E+02    0.15742E+00   -0.39633E+00    48   0.856E+00    0.193E+00
DAV:   3    -0.186838116463E+02    0.59368E-01   -0.30067E-01    48   0.245E+00    0.960E-01
DAV:   4    -0.186680465639E+02    0.15765E-01   -0.11826E-01    32   0.164E+00    0.300E-01
DAV:   5    -0.186664647163E+02    0.15818E-02   -0.18997E-02    32   0.579E-01    0.131E-01
DAV:   6    -0.186666065956E+02   -0.14188E-03   -0.19640E-03    48   0.201E-01    0.529E-02
DAV:   7    -0.186672344608E+02   -0.62787E-03   -0.39873E-04    32   0.106E-01    0.195E-02
DAV:   8    -0.186689012739E+02   -0.16668E-02   -0.50757E-04    32   0.983E-02    0.980E-03
DAV:   9    -0.186705927395E+02   -0.16915E-02   -0.77107E-04    48   0.989E-02    0.102E-02
DAV:  10    -0.186711872346E+02   -0.59450E-03   -0.23091E-04    40   0.538E-02    0.385E-03
DAV:  11    -0.186713997846E+02   -0.21255E-03   -0.36712E-05    48   0.240E-02    0.398E-03
DAV:  12    -0.186714748330E+02   -0.75048E-04   -0.51825E-06    32   0.990E-03    0.217E-03
DAV:  13    -0.186715658576E+02   -0.91025E-04   -0.62650E-06    48   0.102E-02    0.124E-03
DAV:  14    -0.186715909320E+02   -0.25074E-04   -0.12637E-06    32   0.379E-03    0.711E-04
DAV:  15    -0.186716044016E+02   -0.13470E-04   -0.54296E-07    48   0.221E-03    0.214E-04
DAV:  16    -0.186716085982E+02   -0.41967E-05   -0.63301E-08    32   0.956E-04
  49 F= -.18671609E+02 E0= -.18671609E+02  d E =-.135087E+01
quench:  g(F)=  0.000E+00 g(S)=  0.000E+00 dE (1.order)= 0.000E+00
 bond charge predicted
       N       E                     dE             d eps       ncg     rms          rms(c)
DAV:   1    -0.181683404001E+02    0.50326E+00   -0.26313E+01    40   0.286E+01    0.194E+00
DAV:   2    -0.180738776505E+02    0.94463E-01   -0.85557E-01    48   0.436E+00    0.105E+00
DAV:   3    -0.180504710403E+02    0.23407E-01   -0.10403E-01    56   0.149E+00    0.398E-01
DAV:   4    -0.180481832975E+02    0.22877E-02   -0.10403E-02    32   0.536E-01    0.154E-01
DAV:   5    -0.180482450280E+02   -0.61731E-04   -0.18445E-03    32   0.192E-01    0.426E-02
DAV:   6    -0.180486144419E+02   -0.36941E-03   -0.26282E-04    56   0.732E-02    0.173E-02
DAV:   7    -0.180493770381E+02   -0.76260E-03   -0.42796E-04    32   0.790E-02    0.225E-02
DAV:   8    -0.180498527788E+02   -0.47574E-03   -0.23684E-04    48   0.600E-02    0.683E-03
DAV:   9    -0.180506620310E+02   -0.80925E-03   -0.19961E-04    32   0.534E-02    0.123E-02
DAV:  10    -0.180510923958E+02   -0.43036E-03   -0.11808E-04    48   0.341E-02    0.820E-03
DAV:  11    -0.180512659129E+02   -0.17352E-03   -0.66274E-05    40   0.313E-02    0.348E-03
DAV:  12    -0.180513156155E+02   -0.49703E-04   -0.40277E-06    32   0.105E-02    0.308E-03
DAV:  13    -0.180513611014E+02   -0.45486E-04   -0.23231E-06    56   0.684E-03    0.190E-03
DAV:  14    -0.180513798583E+02   -0.18757E-04   -0.32570E-06    32   0.678E-03    0.126E-03
DAV:  15    -0.180513874817E+02   -0.76234E-05   -0.62574E-07    32   0.282E-03
  50 F= -.18051387E+02 E0= -.18051387E+02  d E =0.620221E+00
quench:  g(F)=  0.000E+00 g(S)=  0.000E+00 dE (1.order)= 0.000E+00
 bond charge predicted
       N       E                     dE             d eps       ncg     rms          rms(c)
DAV:   1    -0.185743205392E+02   -0.52294E+00   -0.15949E+01    32   0.229E+01    0.152E+00
DAV:   2    -0.185043083989E+02    0.70012E-01   -0.46258E-01    48   0.300E+00    0.748E-01
DAV:   3    -0.184928957221E+02    0.11413E-01   -0.71923E-02    56   0.123E+00    0.268E-01
DAV:   4    -0.184922956481E+02    0.60007E-03   -0.41859E-03    40   0.318E-01    0.121E-01
DAV:   5    -0.184923824441E+02   -0.86796E-04   -0.76413E-04    40   0.150E-01    0.344E-02
DAV:   6    -0.184925772513E+02   -0.19481E-03   -0.13299E-04    40   0.594E-02    0.111E-02
DAV:   7    -0.184928797209E+02   -0.30247E-03   -0.74688E-05    40   0.371E-02    0.712E-03
DAV:   8    -0.184933236479E+02   -0.44393E-03   -0.13079E-04    40   0.408E-02    0.807E-03
DAV:   9    -0.184937456848E+02   -0.42204E-03   -0.19164E-04    40   0.484E-02    0.923E-03
DAV:  10    -0.184939250321E+02   -0.17935E-03   -0.56583E-05    56   0.266E-02    0.329E-03
DAV:  11    -0.184940583477E+02   -0.13332E-03   -0.12198E-05    40   0.138E-02    0.196E-03
DAV:  12    -0.184940891668E+02   -0.30819E-04   -0.11479E-06    56   0.469E-03    0.136E-03
DAV:  13    -0.184941361584E+02   -0.46992E-04   -0.27645E-06    32   0.755E-03    0.585E-04
DAV:  14    -0.184941443713E+02   -0.82129E-05   -0.84595E-07    32   0.354E-03
  51 F= -.18494144E+02 E0= -.18494144E+02  d E =-.442757E+00
quench:  g(F)=  0.000E+00 g(S)=  0.000E+00 dE (1.order)= 0.000E+00
 bond charge predicted
       N       E                     dE             d eps       ncg     rms          rms(c)
DAV:   1    -0.185717879688E+02   -0.77652E-01   -0.80542E+00    32   0.157E+01    0.100E+00
DAV:   2    -0.185459728311E+02    0.25815E-01   -0.29842E-01    40   0.229E+00    0.525E-01
DAV:   3    -0.185416797526E+02    0.42931E-02   -0.29925E-02    48   0.794E-01    0.231E-01
DAV:   4    -0.185408117690E+02    0.86798E-03   -0.39760E-03    40   0.326E-01    0.797E-02
DAV:   5    -0.185409427943E+02   -0.13103E-03   -0.72852E-04    32   0.145E-01    0.302E-02
DAV:   6    -0.185410860703E+02   -0.14328E-03   -0.31342E-04    40   0.661E-02    0.138E-02
DAV:   7    -0.185412290522E+02   -0.14298E-03   -0.15563E-04    32   0.488E-02    0.993E-03
DAV:   8    -0.185414456476E+02   -0.21660E-03   -0.76134E-05    32   0.350E-02    0.396E-03
DAV:   9    -0.185417391785E+02   -0.29353E-03   -0.10976E-04    40   0.366E-02    0.476E-03
DAV:  10    -0.185418521365E+02   -0.11296E-03   -0.16571E-05    56   0.139E-02    0.132E-03
DAV:  11    -0.185419104845E+02   -0.58348E-04   -0.40796E-06    40   0.801E-03    0.169E-03
DAV:  12    -0.185419488221E+02   -0.38338E-04   -0.11348E-06    48   0.517E-03    0.741E-04
DAV:  13    -0.185419724279E+02   -0.23606E-04   -0.11220E-06    32   0.494E-03    0.336E-04
DAV:  14    -0.185419785305E+02   -0.61026E-05   -0.45831E-07    32   0.268E-03
  52 F= -.18541979E+02 E0= -.18541979E+02  d E =-.478342E-01
quench:  g(F)=  0.000E+00 g(S)=  0.000E+00 dE (1.order)= 0.000E+00
 bond charge predicted
       N       E                     dE             d eps       ncg     rms          rms(c)
DAV:   1    -0.185921922356E+02   -0.50220E-01   -0.10517E+00    32   0.570E+00    0.369E-01
DAV:   2    -0.185891859814E+02    0.30063E-02   -0.34201E-02    48   0.829E-01    0.223E-01
DAV:   3    -0.185883229206E+02    0.86306E-03   -0.48255E-03    48   0.301E-01    0.956E-02
DAV:   4    -0.185880787324E+02    0.24419E-03   -0.98874E-04    40   0.147E-01    0.330E-02
DAV:   5    -0.185881234769E+02   -0.44744E-04   -0.81486E-05    40   0.446E-02    0.125E-02
DAV:   6    -0.185881724831E+02   -0.49006E-04   -0.10573E-05    32   0.182E-02    0.275E-03
DAV:   7    -0.185882258128E+02   -0.53330E-04   -0.44946E-06    40   0.751E-03    0.198E-03
DAV:   8    -0.185883127271E+02   -0.86914E-04   -0.15862E-05    32   0.133E-02    0.146E-03
DAV:   9    -0.185883594612E+02   -0.46734E-04   -0.75173E-06    40   0.824E-03    0.925E-04
DAV:  10    -0.185883780401E+02   -0.18579E-04   -0.15264E-06    32   0.446E-03    0.433E-04
DAV:  11    -0.185883885760E+02   -0.10536E-04   -0.49415E-07    48   0.320E-03    0.296E-04
DAV:  12    -0.185883911970E+02   -0.26211E-05   -0.81763E-08    32   0.178E-03
  53 F= -.18588391E+02 E0= -.18588391E+02  d E =-.464127E-01
quench:  g(F)=  0.000E+00 g(S)=  0.000E+00 dE (1.order)= 0.000E+00
 bond charge predicted
       N       E                     dE             d eps       ncg     rms          rms(c)
DAV:   1    -0.186177498963E+02   -0.29361E-01   -0.15670E+00    32   0.678E+00    0.446E-01
DAV:   2    -0.186149859873E+02    0.27639E-02   -0.27997E-02    48   0.848E-01    0.281E-01
DAV:   3    -0.186134666721E+02    0.15193E-02   -0.10576E-02    48   0.462E-01    0.971E-02
DAV:   4    -0.186133582332E+02    0.10844E-03   -0.91561E-04    32   0.122E-01    0.435E-02
DAV:   5    -0.186133876435E+02   -0.29410E-04   -0.21429E-04    32   0.682E-02    0.198E-02
DAV:   6    -0.186134211493E+02   -0.33506E-04   -0.29426E-05    32   0.304E-02    0.376E-03
DAV:   7    -0.186134613408E+02   -0.40192E-04   -0.45980E-06    40   0.897E-03    0.199E-03
DAV:   8    -0.186135034125E+02   -0.42072E-04   -0.38938E-06    32   0.694E-03    0.106E-03
DAV:   9    -0.186135578879E+02   -0.54475E-04   -0.97187E-06    40   0.949E-03    0.786E-04
DAV:  10    -0.186135768019E+02   -0.18914E-04   -0.18861E-06    32   0.453E-03    0.440E-04
DAV:  11    -0.186135860479E+02   -0.92460E-05   -0.47740E-07    32   0.246E-03
  54 F= -.18613586E+02 E0= -.18613586E+02  d E =-.251949E-01
quench:  g(F)=  0.000E+00 g(S)=  0.000E+00 dE (1.order)= 0.000E+00
 bond charge predicted
       N       E                     dE             d eps       ncg     rms          rms(c)
DAV:   1    -0.186056053493E+02    0.79715E-02   -0.91540E-01    32   0.518E+00    0.344E-01
DAV:   2    -0.186050939103E+02    0.51144E-03   -0.17410E-02    32   0.640E-01    0.196E-01
DAV:   3    -0.186044483766E+02    0.64553E-03   -0.28188E-03    48   0.236E-01    0.702E-02
DAV:   4    -0.186044386404E+02    0.97362E-05   -0.31302E-04    32   0.905E-02    0.268E-02
DAV:   5    -0.186044653954E+02   -0.26755E-04   -0.89298E-05    32   0.407E-02    0.117E-02
DAV:   6    -0.186044846321E+02   -0.19237E-04   -0.13589E-05    32   0.196E-02    0.285E-03
DAV:   7    -0.186045094358E+02   -0.24804E-04   -0.46316E-06    32   0.893E-03    0.115E-03
DAV:   8    -0.186045201451E+02   -0.10709E-04   -0.96496E-07    32   0.365E-03    0.686E-04
DAV:   9    -0.186045380474E+02   -0.17902E-04   -0.39163E-06    32   0.673E-03    0.591E-04
DAV:  10    -0.186045433883E+02   -0.53409E-05   -0.85079E-07    32   0.293E-03
  55 F= -.18604543E+02 E0= -.18604543E+02  d E =0.904266E-02
quench:  g(F)=  0.000E+00 g(S)=  0.000E+00 dE (1.order)= 0.000E+00
 bond charge predicted
       N       E                     dE             d eps       ncg     rms          rms(c)
DAV:   1    -0.185420706094E+02    0.62467E-01   -0.19987E+00    32   0.797E+00    0.508E-01
DAV:   2    -0.185403670446E+02    0.17036E-02   -0.38942E-02    32   0.903E-01    0.259E-01
DAV:   3    -0.185400588030E+02    0.30824E-03   -0.23527E-03    48   0.234E-01    0.113E-01
DAV:   4    -0.185399893454E+02    0.69458E-04   -0.60183E-04    32   0.117E-01    0.326E-02
DAV:   5    -0.185400205820E+02   -0.31237E-04   -0.24055E-04    48   0.562E-02    0.151E-02
DAV:   6    -0.185400862600E+02   -0.65678E-04   -0.30998E-05    32   0.245E-02    0.638E-03
DAV:   7    -0.185401453196E+02   -0.59060E-04   -0.14127E-05    32   0.149E-02    0.275E-03
DAV:   8    -0.185402426592E+02   -0.97340E-04   -0.25593E-05    32   0.182E-02    0.176E-03
DAV:   9    -0.185402819628E+02   -0.39304E-04   -0.62037E-06    48   0.775E-03    0.105E-03
DAV:  10    -0.185403157156E+02   -0.33753E-04   -0.82484E-06    32   0.875E-03    0.721E-04
DAV:  11    -0.185403248280E+02   -0.91123E-05   -0.36497E-07    48   0.216E-03
  56 F= -.18540325E+02 E0= -.18540325E+02  d E =0.642186E-01
quench:  g(F)=  0.000E+00 g(S)=  0.000E+00 dE (1.order)= 0.000E+00
 bond charge predicted
       N       E                     dE             d eps       ncg     rms          rms(c)
DAV:   1    -0.184921879091E+02    0.48128E-01   -0.18549E+00    32   0.788E+00    0.435E-01
DAV:   2    -0.184900423056E+02    0.21456E-02   -0.33196E-02    48   0.828E-01    0.210E-01
DAV:   3    -0.184895781408E+02    0.46416E-03   -0.18079E-03    48   0.204E-01    0.949E-02
DAV:   4    -0.184894453778E+02    0.13276E-03   -0.24371E-04    40   0.932E-02    0.236E-02
DAV:   5    -0.184894824406E+02   -0.37063E-04   -0.62915E-05    32   0.332E-02    0.949E-03
DAV:   6    -0.184895456352E+02   -0.63195E-04   -0.26563E-05    32   0.196E-02    0.427E-03
DAV:   7    -0.184896289188E+02   -0.83284E-04   -0.23835E-05    32   0.183E-02    0.276E-03
DAV:   8    -0.184896952302E+02   -0.66311E-04   -0.92323E-06    40   0.103E-02    0.173E-03
DAV:   9    -0.184897844719E+02   -0.89242E-04   -0.36299E-05    32   0.192E-02    0.112E-03
DAV:  10    -0.184898092921E+02   -0.24820E-04   -0.24631E-06    56   0.476E-03    0.895E-04
DAV:  11    -0.184898282461E+02   -0.18954E-04   -0.11920E-06    32   0.343E-03    0.442E-04
DAV:  12    -0.184898363925E+02   -0.81464E-05   -0.24373E-07    48   0.208E-03
  57 F= -.18489836E+02 E0= -.18489836E+02  d E =0.504884E-01
quench:  g(F)=  0.000E+00 g(S)=  0.000E+00 dE (1.order)= 0.000E+00
 bond charge predicted
       N       E                     dE             d eps       ncg     rms          rms(c)
DAV:   1    -0.184840628970E+02    0.57653E-02   -0.10644E+00    32   0.582E+00    0.286E-01
DAV:   2    -0.184831630470E+02    0.89985E-03   -0.12636E-02    48   0.572E-01    0.169E-01
DAV:   3    -0.184824514021E+02    0.71164E-03   -0.34342E-03    48   0.261E-01    0.344E-02
DAV:   4    -0.184824580192E+02   -0.66171E-05   -0.18139E-04    32   0.652E-02    0.182E-02
DAV:   5    -0.184824669610E+02   -0.89418E-05   -0.32388E-05    40   0.264E-02
  58 F= -.18482467E+02 E0= -.18482467E+02  d E =0.736943E-02
quench:  g(F)=  0.000E+00 g(S)=  0.000E+00 dE (1.order)= 0.000E+00
 bond charge predicted
       N       E                     dE             d eps       ncg     rms          rms(c)
DAV:   1    -0.184822424230E+02    0.21560E-03   -0.89938E-01    48   0.521E+00    0.296E-01
DAV:   2    -0.184814506868E+02    0.79174E-03   -0.14323E-02    40   0.595E-01    0.170E-01
DAV:   3    -0.184806954601E+02    0.75523E-03   -0.28956E-03    56   0.225E-01    0.569E-02
DAV:   4    -0.184806753095E+02    0.20151E-04   -0.41684E-04    32   0.978E-02    0.215E-02
DAV:   5    -0.184806923756E+02   -0.17066E-04   -0.55601E-05    40   0.348E-02    0.102E-02
DAV:   6    -0.184807183206E+02   -0.25945E-04   -0.91972E-06    32   0.165E-02    0.272E-03
DAV:   7    -0.184807467065E+02   -0.28386E-04   -0.48351E-06    40   0.834E-03    0.122E-03
DAV:   8    -0.184807658591E+02   -0.19153E-04   -0.23660E-06    48   0.533E-03    0.916E-04
DAV:   9    -0.184807949440E+02   -0.29085E-04   -0.10429E-05    40   0.988E-03    0.679E-04
DAV:  10    -0.184807999978E+02   -0.50538E-05   -0.56054E-07    56   0.232E-03
  59 F= -.18480800E+02 E0= -.18480800E+02  d E =0.166696E-02
quench:  g(F)=  0.000E+00 g(S)=  0.000E+00 dE (1.order)= 0.000E+00
 bond charge predicted
       N       E                     dE             d eps       ncg     rms          rms(c)
DAV:   1    -0.184959164379E+02   -0.15121E-01   -0.35101E-01    32   0.339E+00    0.200E-01
DAV:   2    -0.184954990873E+02    0.41735E-03   -0.10385E-02    40   0.432E-01    0.997E-02
DAV:   3    -0.184953577586E+02    0.14133E-03   -0.57084E-04    48   0.112E-01    0.526E-02
DAV:   4    -0.184952616900E+02    0.96069E-04   -0.12969E-04    40   0.695E-02    0.124E-02
DAV:   5    -0.184952789958E+02   -0.17306E-04   -0.22319E-05    40   0.232E-02    0.481E-03
DAV:   6    -0.184953011892E+02   -0.22193E-04   -0.52924E-06    32   0.911E-03    0.208E-03
DAV:   7    -0.184953251928E+02   -0.24004E-04   -0.34739E-06    40   0.633E-03    0.136E-03
DAV:   8    -0.184953516665E+02   -0.26474E-04   -0.27950E-06    40   0.555E-03    0.795E-04
DAV:   9    -0.184953855747E+02   -0.33908E-04   -0.79038E-06    32   0.873E-03    0.560E-04
DAV:  10    -0.184953951482E+02   -0.95735E-05   -0.67202E-07    56   0.260E-03
  60 F= -.18495395E+02 E0= -.18495395E+02  d E =-.145952E-01
quench:  g(F)=  0.000E+00 g(S)=  0.000E+00 dE (1.order)= 0.000E+00
 bond charge predicted
       N       E                     dE             d eps       ncg     rms          rms(c)
DAV:   1    -0.185187393079E+02   -0.23354E-01   -0.48436E-01    32   0.397E+00    0.196E-01
DAV:   2    -0.185184926956E+02    0.24661E-03   -0.61917E-03    40   0.392E-01    0.111E-01
DAV:   3    -0.185181192803E+02    0.37342E-03   -0.13511E-03    48   0.160E-01    0.278E-02
DAV:   4    -0.185181147014E+02    0.45790E-05   -0.49763E-05    32   0.370E-02
  61 F= -.18518115E+02 E0= -.18518115E+02  d E =-.227196E-01
quench:  g(F)=  0.000E+00 g(S)=  0.000E+00 dE (1.order)= 0.000E+00
 bond charge predicted
       N       E                     dE             d eps       ncg     rms          rms(c)
DAV:   1    -0.185263431651E+02   -0.82239E-02   -0.22646E-01    48   0.253E+00    0.145E-01
DAV:   2    -0.185261577344E+02    0.18543E-03   -0.51591E-03    32   0.323E-01    0.808E-02
DAV:   3    -0.185260569761E+02    0.10076E-03   -0.32128E-04    56   0.913E-02    0.373E-02
DAV:   4    -0.185260552153E+02    0.17609E-05   -0.10886E-04    32   0.541E-02    0.744E-03
DAV:   5    -0.185260778036E+02   -0.22588E-04   -0.20340E-05    40   0.204E-02    0.389E-03
DAV:   6    -0.185260879176E+02   -0.10114E-04   -0.20874E-06    48   0.573E-03    0.178E-03
DAV:   7    -0.185261064778E+02   -0.18560E-04   -0.15737E-06    40   0.481E-03    0.750E-04
DAV:   8    -0.185261197156E+02   -0.13238E-04   -0.70341E-07    48   0.283E-03    0.401E-04
DAV:   9    -0.185261351344E+02   -0.15419E-04   -0.18628E-06    40   0.434E-03    0.323E-04
DAV:  10    -0.185261398046E+02   -0.46703E-05   -0.30921E-07    48   0.205E-03
  62 F= -.18526140E+02 E0= -.18526140E+02  d E =-.802510E-02
quench:  g(F)=  0.000E+00 g(S)=  0.000E+00 dE (1.order)= 0.000E+00
 bond charge predicted
       N       E                     dE             d eps       ncg     rms          rms(c)
DAV:   1    -0.185224799088E+02    0.36552E-02   -0.32693E-02    32   0.989E-01    0.702E-02
DAV:   2    -0.185224294866E+02    0.50422E-04   -0.10527E-03    32   0.138E-01    0.351E-02
DAV:   3    -0.185224147020E+02    0.14785E-04   -0.65280E-05    40   0.391E-02    0.169E-02
DAV:   4    -0.185224098592E+02    0.48427E-05   -0.13195E-05    32   0.221E-02
  63 F= -.18522410E+02 E0= -.18522410E+02  d E =0.372995E-02
quench:  g(F)=  0.000E+00 g(S)=  0.000E+00 dE (1.order)= 0.000E+00
 bond charge predicted
       N       E                     dE             d eps       ncg     rms          rms(c)
DAV:   1    -0.185165429292E+02    0.58718E-02   -0.47838E-02    32   0.122E+00    0.656E-02
DAV:   2    -0.185165295311E+02    0.13398E-04   -0.48314E-04    40   0.112E-01    0.369E-02
DAV:   3    -0.185165016282E+02    0.27903E-04   -0.81695E-05    40   0.383E-02    0.656E-03
DAV:   4    -0.185165032966E+02   -0.16685E-05   -0.64609E-06    32   0.126E-02
  64 F= -.18516503E+02 E0= -.18516503E+02  d E =0.590656E-02
quench:  g(F)=  0.000E+00 g(S)=  0.000E+00 dE (1.order)= 0.000E+00
 bond charge predicted
       N       E                     dE             d eps       ncg     rms          rms(c)
DAV:   1    -0.184889212288E+02    0.27580E-01   -0.71918E-01    40   0.475E+00    0.258E-01
DAV:   2    -0.184887736340E+02    0.14759E-03   -0.68943E-03    48   0.407E-01    0.145E-01
DAV:   3    -0.184884129288E+02    0.36071E-03   -0.11685E-03    48   0.139E-01    0.237E-02
DAV:   4    -0.184884222766E+02   -0.93478E-05   -0.78746E-05    32   0.415E-02
  65 F= -.18488422E+02 E0= -.18488422E+02  d E =0.280810E-01
quench:  g(F)=  0.000E+00 g(S)=  0.000E+00 dE (1.order)= 0.000E+00
 bond charge predicted
       N       E                     dE             d eps       ncg     rms          rms(c)
DAV:   1    -0.184439151275E+02    0.44498E-01   -0.15507E+00    32   0.697E+00    0.422E-01
DAV:   2    -0.184433147284E+02    0.60040E-03   -0.13992E-02    40   0.536E-01    0.230E-01
DAV:   3    -0.184428159853E+02    0.49874E-03   -0.23308E-03    40   0.170E-01    0.453E-02
DAV:   4    -0.184428486362E+02   -0.32651E-04   -0.28066E-04    32   0.648E-02    0.213E-02
DAV:   5    -0.184428690079E+02   -0.20372E-04   -0.33384E-05    40   0.255E-02    0.806E-03
DAV:   6    -0.184429274336E+02   -0.58426E-04   -0.12427E-05    32   0.158E-02    0.295E-03
DAV:   7    -0.184430130526E+02   -0.85619E-04   -0.14293E-05    40   0.124E-02    0.186E-03
DAV:   8    -0.184430686668E+02   -0.55614E-04   -0.68063E-06    40   0.807E-03    0.108E-03
DAV:   9    -0.184431268794E+02   -0.58213E-04   -0.12857E-05    40   0.994E-03    0.647E-04
DAV:  10    -0.184431493274E+02   -0.22448E-04   -0.15970E-06    56   0.373E-03    0.417E-04
DAV:  11    -0.184431632210E+02   -0.13894E-04   -0.47851E-07    32   0.280E-03    0.213E-04
DAV:  12    -0.184431675573E+02   -0.43364E-05   -0.12176E-07    32   0.140E-03
  66 F= -.18443168E+02 E0= -.18443168E+02  d E =0.452547E-01
quench:  g(F)=  0.000E+00 g(S)=  0.000E+00 dE (1.order)= 0.000E+00
 bond charge predicted
       N       E                     dE             d eps       ncg     rms          rms(c)
DAV:   1    -0.183822181692E+02    0.60945E-01   -0.33469E+00    40   0.102E+01    0.615E-01
DAV:   2    -0.183811242750E+02    0.10939E-02   -0.31511E-02    48   0.815E-01    0.342E-01
DAV:   3    -0.183802092632E+02    0.91501E-03   -0.60102E-03    48   0.268E-01    0.654E-02
DAV:   4    -0.183802106100E+02   -0.13468E-05   -0.49966E-04    32   0.935E-02    0.334E-02
DAV:   5    -0.183802168505E+02   -0.62405E-05   -0.65563E-05    48   0.392E-02
  67 F= -.18380217E+02 E0= -.18380217E+02  d E =0.629507E-01
quench:  g(F)=  0.000E+00 g(S)=  0.000E+00 dE (1.order)= 0.000E+00
 bond charge predicted
       N       E                     dE             d eps       ncg     rms          rms(c)
DAV:   1    -0.183366772135E+02    0.43533E-01   -0.20597E+00    32   0.788E+00    0.542E-01
DAV:   2    -0.183353174241E+02    0.13598E-02   -0.21720E-02    40   0.670E-01    0.287E-01
DAV:   3    -0.183349660017E+02    0.35142E-03   -0.33666E-03    48   0.193E-01    0.646E-02
DAV:   4    -0.183350410122E+02   -0.75010E-04   -0.30717E-04    32   0.770E-02    0.255E-02
DAV:   5    -0.183351135006E+02   -0.72488E-04   -0.59105E-05    32   0.352E-02    0.809E-03
DAV:   6    -0.183352003207E+02   -0.86820E-04   -0.12245E-05    32   0.147E-02    0.351E-03
DAV:   7    -0.183353501562E+02   -0.14984E-03   -0.23363E-05    32   0.161E-02    0.253E-03
DAV:   8    -0.183354546489E+02   -0.10449E-03   -0.14462E-05    48   0.112E-02    0.144E-03
DAV:   9    -0.183355491280E+02   -0.94479E-04   -0.17841E-05    32   0.122E-02    0.879E-04
DAV:  10    -0.183355770510E+02   -0.27923E-04   -0.16819E-06    56   0.382E-03    0.593E-04
DAV:  11    -0.183355995596E+02   -0.22509E-04   -0.81286E-07    32   0.369E-03    0.275E-04
[...]
 bond charge predicted
       N       E                     dE             d eps       ncg     rms          rms(c)
DAV:   1    -0.183927369797E+02   -0.57137E-01   -0.30538E+00    32   0.976E+00    0.573E-01
DAV:   2    -0.183914288019E+02    0.13082E-02   -0.26065E-02    48   0.793E-01    0.317E-01
DAV:   3    -0.183901955842E+02    0.12332E-02   -0.59667E-03    48   0.289E-01    0.527E-02
DAV:   4    -0.183902236366E+02   -0.28052E-04   -0.27229E-04    32   0.717E-02    0.278E-02
DAV:   5    -0.183902621562E+02   -0.38520E-04   -0.51747E-05    32   0.390E-02    0.541E-03
DAV:   6    -0.183903047553E+02   -0.42599E-04   -0.55695E-06    48   0.976E-03    0.292E-03
DAV:   7    -0.183903799142E+02   -0.75159E-04   -0.11262E-05    40   0.115E-02    0.169E-03
DAV:   8    -0.183904481022E+02   -0.68188E-04   -0.10646E-05    48   0.949E-03    0.114E-03
DAV:   9    -0.183904949224E+02   -0.46820E-04   -0.85526E-06    40   0.856E-03    0.696E-04
DAV:  10    -0.183905150142E+02   -0.20092E-04   -0.13304E-06    48   0.360E-03    0.416E-04
DAV:  11    -0.183905301054E+02   -0.15091E-04   -0.84072E-07    32   0.311E-03    0.203E-04
DAV:  12    -0.183905355013E+02   -0.53958E-05   -0.20113E-07    48   0.223E-03
  69 F= -.18390536E+02 E0= -.18390536E+02  d E =-.549267E-01
quench:  g(F)=  0.000E+00 g(S)=  0.000E+00 dE (1.order)= 0.000E+00
 bond charge predicted
       N       E                     dE             d eps       ncg     rms          rms(c)
DAV:   1    -0.183987587250E+02   -0.82286E-02   -0.11448E-01    32   0.182E+00    0.120E-01
DAV:   2    -0.183986686986E+02    0.90026E-04   -0.21262E-03    40   0.230E-01    0.670E-02
DAV:   3    -0.183985923797E+02    0.76319E-04   -0.29044E-04    40   0.797E-02    0.207E-02
DAV:   4    -0.183985904530E+02    0.19267E-05   -0.17868E-05    32   0.255E-02
  70 F= -.18398590E+02 E0= -.18398590E+02  d E =-.805495E-02
quench:  g(F)=  0.000E+00 g(S)=  0.000E+00 dE (1.order)= 0.000E+00
 bond charge predicted
       N       E                     dE             d eps       ncg     rms          rms(c)
DAV:   1    -0.183987089957E+02   -0.11662E-03   -0.21639E-03    32   0.260E-01    0.175E-02
DAV:   2    -0.183987030245E+02    0.59712E-05   -0.69943E-05    40   0.374E-02
  71 F= -.18398703E+02 E0= -.18398703E+02  d E =-.112572E-03
quench:  g(F)=  0.000E+00 g(S)=  0.000E+00 dE (1.order)= 0.000E+00
 bond charge predicted
       N       E                     dE             d eps       ncg     rms          rms(c)
DAV:   1    -0.183944915409E+02    0.42175E-02   -0.14113E-02    32   0.648E-01    0.446E-02
DAV:   2    -0.183944923896E+02   -0.84877E-06   -0.14512E-04    32   0.562E-02    0.235E-02
DAV:   3    -0.183944908623E+02    0.15273E-05   -0.28875E-05    32   0.234E-02
  72 F= -.18394491E+02 E0= -.18394491E+02  d E =0.421216E-02
quench:  g(F)=  0.000E+00 g(S)=  0.000E+00 dE (1.order)= 0.000E+00
 bond charge predicted
       N       E                     dE             d eps       ncg     rms          rms(c)
DAV:   1    -0.183881101919E+02    0.63822E-02   -0.60785E-02    48   0.137E+00    0.921E-02
DAV:   2    -0.183880549249E+02    0.55267E-04   -0.87306E-04    32   0.138E-01    0.485E-02
DAV:   3    -0.183880145256E+02    0.40399E-04   -0.14650E-04    32   0.548E-02    0.144E-02
DAV:   4    -0.183880148448E+02   -0.31921E-06   -0.75926E-06    32   0.155E-02
  73 F= -.18388015E+02 E0= -.18388015E+02  d E =0.647602E-02
quench:  g(F)=  0.000E+00 g(S)=  0.000E+00 dE (1.order)= 0.000E+00
 bond charge predicted
       N       E                     dE             d eps       ncg     rms          rms(c)
DAV:   1    -0.183876453465E+02    0.36918E-03   -0.28088E-02    32   0.943E-01    0.526E-02
DAV:   2    -0.183875978458E+02    0.47501E-04   -0.75724E-04    32   0.128E-01    0.281E-02
DAV:   3    -0.183875838659E+02    0.13980E-04   -0.65213E-05    48   0.400E-02    0.122E-02
DAV:   4    -0.183875811381E+02    0.27278E-05   -0.10598E-05    40   0.177E-02
  74 F= -.18387581E+02 E0= -.18387581E+02  d E =0.433707E-03
quench:  g(F)=  0.000E+00 g(S)=  0.000E+00 dE (1.order)= 0.000E+00
 bond charge predicted
       N       E                     dE             d eps       ncg     rms          rms(c)
DAV:   1    -0.183889072239E+02   -0.13234E-02   -0.32039E-03    40   0.318E-01    0.188E-02
DAV:   2    -0.183889044177E+02    0.28062E-05   -0.79188E-05    32   0.423E-02
  75 F= -.18388904E+02 E0= -.18388904E+02  d E =-.132328E-02
quench:  g(F)=  0.000E+00 g(S)=  0.000E+00 dE (1.order)= 0.000E+00
 bond charge predicted
       N       E                     dE             d eps       ncg     rms          rms(c)
DAV:   1    -0.183900348944E+02   -0.11277E-02   -0.74826E-04    48   0.156E-01    0.135E-02
DAV:   2    -0.183900343852E+02    0.50922E-06   -0.11459E-05    40   0.158E-02
  76 F= -.18390034E+02 E0= -.18390034E+02  d E =-.112997E-02
quench:  g(F)=  0.000E+00 g(S)=  0.000E+00 dE (1.order)= 0.000E+00
 bond charge predicted
       N       E                     dE             d eps       ncg     rms          rms(c)
DAV:   1    -0.183892916740E+02    0.74322E-03   -0.55268E-03    32   0.412E-01    0.268E-02
DAV:   2    -0.183892908083E+02    0.86575E-06   -0.50197E-05    40   0.342E-02
  77 F= -.18389291E+02 E0= -.18389291E+02  d E =0.743577E-03
quench:  g(F)=  0.000E+00 g(S)=  0.000E+00 dE (1.order)= 0.000E+00
 bond charge predicted
       N       E                     dE             d eps       ncg     rms          rms(c)
DAV:   1    -0.183917770412E+02   -0.24854E-02   -0.19412E-01    32   0.249E+00    0.163E-01
DAV:   2    -0.183917747249E+02    0.23163E-05   -0.25794E-03    48   0.255E-01    0.975E-02
DAV:   3    -0.183916384206E+02    0.13630E-03   -0.13700E-03    32   0.165E-01    0.315E-02
DAV:   4    -0.183916233265E+02    0.15094E-04   -0.17341E-04    32   0.538E-02    0.163E-02
DAV:   5    -0.183916245204E+02   -0.11939E-05   -0.16419E-05    32   0.244E-02
  78 F= -.18391625E+02 E0= -.18391625E+02  d E =-.233371E-02
quench:  g(F)=  0.000E+00 g(S)=  0.000E+00 dE (1.order)= 0.000E+00
 bond charge predicted
       N       E                     dE             d eps       ncg     rms          rms(c)
DAV:   1    -0.183829416957E+02    0.86816E-02   -0.12856E-01    32   0.192E+00    0.133E-01
DAV:   2    -0.183827722131E+02    0.16948E-03   -0.22539E-03    40   0.237E-01    0.806E-02
DAV:   3    -0.183826878923E+02    0.84321E-04   -0.67239E-04    48   0.117E-01    0.270E-02
DAV:   4    -0.183826838549E+02    0.40374E-05   -0.66560E-05    32   0.355E-02
  79 F= -.18382684E+02 E0= -.18382684E+02  d E =0.894067E-02
quench:  g(F)=  0.000E+00 g(S)=  0.000E+00 dE (1.order)= 0.000E+00
 bond charge predicted
       N       E                     dE             d eps       ncg     rms          rms(c)
DAV:   1    -0.183792502007E+02    0.34377E-02   -0.50864E-02    40   0.129E+00    0.794E-02
DAV:   2    -0.183792774387E+02   -0.27238E-04   -0.47594E-04    40   0.114E-01    0.475E-02
DAV:   3    -0.183792661030E+02    0.11336E-04   -0.10818E-04    56   0.482E-02    0.120E-02
DAV:   4    -0.183792654767E+02    0.62630E-06   -0.16531E-05    32   0.157E-02
  80 F= -.18379265E+02 E0= -.18379265E+02  d E =0.341838E-02
quench:  g(F)=  0.000E+00 g(S)=  0.000E+00 dE (1.order)= 0.000E+00
 bond charge predicted
       N       E                     dE             d eps       ncg     rms          rms(c)
DAV:   1    -0.183754941001E+02    0.37720E-02   -0.59058E-02    32   0.141E+00    0.734E-02
DAV:   2    -0.183755023926E+02   -0.82925E-05   -0.64513E-04    40   0.132E-01    0.434E-02
DAV:   3    -0.183754760690E+02    0.26324E-04   -0.12095E-04    40   0.467E-02    0.116E-02
DAV:   4    -0.183754782718E+02   -0.22028E-05   -0.19770E-05    32   0.176E-02
  81 F= -.18375478E+02 E0= -.18375478E+02  d E =0.378720E-02
quench:  g(F)=  0.000E+00 g(S)=  0.000E+00 dE (1.order)= 0.000E+00
 bond charge predicted
       N       E                     dE             d eps       ncg     rms          rms(c)
DAV:   1    -0.183798499111E+02   -0.43738E-02   -0.18312E-02    32   0.793E-01    0.373E-02
DAV:   2    -0.183798713729E+02   -0.21462E-04   -0.16168E-04    40   0.714E-02    0.233E-02
DAV:   3    -0.183798717062E+02   -0.33330E-06   -0.24684E-05    40   0.243E-02
  82 F= -.18379872E+02 E0= -.18379872E+02  d E =-.439343E-02
quench:  g(F)=  0.000E+00 g(S)=  0.000E+00 dE (1.order)= 0.000E+00
 bond charge predicted
       N       E                     dE             d eps       ncg     rms          rms(c)
DAV:   1    -0.183789412942E+02    0.93008E-03   -0.23709E-02    48   0.848E-01    0.611E-02
DAV:   2    -0.183789442054E+02   -0.29112E-05   -0.29184E-04    40   0.819E-02    0.335E-02
DAV:   3    -0.183789316896E+02    0.12516E-04   -0.48338E-05    40   0.273E-02    0.930E-03
DAV:   4    -0.183789317779E+02   -0.88286E-07   -0.52329E-06    32   0.113E-02
  83 F= -.18378932E+02 E0= -.18378932E+02  d E =0.939928E-03
quench:  g(F)=  0.000E+00 g(S)=  0.000E+00 dE (1.order)= 0.000E+00
 bond charge predicted
       N       E                     dE             d eps       ncg     rms          rms(c)
DAV:   1    -0.183806231050E+02   -0.16914E-02   -0.27093E-02    32   0.917E-01    0.596E-02
DAV:   2    -0.183806228901E+02    0.21492E-06   -0.24019E-04    40   0.725E-02    0.327E-02
DAV:   3    -0.183806115996E+02    0.11290E-04   -0.57211E-05    48   0.292E-02    0.666E-03
DAV:   4    -0.183806116020E+02   -0.23588E-08   -0.53338E-06    32   0.888E-03
  84 F= -.18380612E+02 E0= -.18380612E+02  d E =-.167982E-02
quench:  g(F)=  0.000E+00 g(S)=  0.000E+00 dE (1.order)= 0.000E+00
 bond charge predicted
       N       E                     dE             d eps       ncg     rms          rms(c)
DAV:   1    -0.183680516314E+02    0.12560E-01   -0.10511E-01    40   0.183E+00    0.107E-01
DAV:   2    -0.183680496074E+02    0.20241E-05   -0.16257E-03    48   0.194E-01    0.668E-02
DAV:   3    -0.183679986492E+02    0.50958E-04   -0.25840E-04    40   0.707E-02    0.215E-02
DAV:   4    -0.183679959085E+02    0.27408E-05   -0.33938E-05    40   0.287E-02
  85 F= -.18367996E+02 E0= -.18367996E+02  d E =0.126157E-01
quench:  g(F)=  0.000E+00 g(S)=  0.000E+00 dE (1.order)= 0.000E+00
 bond charge predicted
       N       E                     dE             d eps       ncg     rms          rms(c)
DAV:   1    -0.183758494026E+02   -0.78508E-02   -0.37041E-02    48   0.109E+00    0.637E-02
DAV:   2    -0.183758436462E+02    0.57563E-05   -0.74476E-04    40   0.129E-01    0.411E-02
DAV:   3    -0.183758291393E+02    0.14507E-04   -0.92775E-05    40   0.465E-02    0.174E-02
DAV:   4    -0.183758266611E+02    0.24783E-05   -0.12619E-05    40   0.194E-02
  86 F= -.18375827E+02 E0= -.18375827E+02  d E =-.783075E-02
quench:  g(F)=  0.000E+00 g(S)=  0.000E+00 dE (1.order)= 0.000E+00
 bond charge predicted
       N       E                     dE             d eps       ncg     rms          rms(c)
DAV:   1    -0.183766537090E+02   -0.82457E-03   -0.38164E-04    32   0.111E-01    0.729E-03
DAV:   2    -0.183766541040E+02   -0.39494E-06   -0.48535E-06    56   0.111E-02
  87 F= -.18376654E+02 E0= -.18376654E+02  d E =-.827443E-03
quench:  g(F)=  0.000E+00 g(S)=  0.000E+00 dE (1.order)= 0.000E+00
 bond charge predicted
       N       E                     dE             d eps       ncg     rms          rms(c)
DAV:   1    -0.183752581662E+02    0.13955E-02   -0.19231E-03    32   0.240E-01    0.166E-02
DAV:   2    -0.183752574908E+02    0.67545E-06   -0.22346E-05    40   0.218E-02
  88 F= -.18375257E+02 E0= -.18375257E+02  d E =0.139661E-02
quench:  g(F)=  0.000E+00 g(S)=  0.000E+00 dE (1.order)= 0.000E+00
 bond charge predicted
       N       E                     dE             d eps       ncg     rms          rms(c)
DAV:   1    -0.183744682988E+02    0.78987E-03   -0.56280E-04    48   0.135E-01    0.921E-03
DAV:   2    -0.183744684412E+02   -0.14244E-06   -0.63620E-06    32   0.127E-02
  89 F= -.18374468E+02 E0= -.18374468E+02  d E =0.789050E-03
quench:  g(F)=  0.000E+00 g(S)=  0.000E+00 dE (1.order)= 0.000E+00
 bond charge predicted
       N       E                     dE             d eps       ncg     rms          rms(c)
DAV:   1    -0.183734466624E+02    0.10216E-02   -0.87446E-04    48   0.170E-01    0.905E-03
DAV:   2    -0.183734464537E+02    0.20872E-06   -0.99449E-06    40   0.165E-02
  90 F= -.18373446E+02 E0= -.18373446E+02  d E =0.102199E-02
quench:  g(F)=  0.000E+00 g(S)=  0.000E+00 dE (1.order)= 0.000E+00
 bond charge predicted
       N       E                     dE             d eps       ncg     rms          rms(c)
DAV:   1    -0.183687067294E+02    0.47399E-02   -0.13837E-02    32   0.689E-01    0.354E-02
DAV:   2    -0.183687088360E+02   -0.21067E-05   -0.12449E-04    40   0.607E-02    0.207E-02
DAV:   3    -0.183687020090E+02    0.68270E-05   -0.15964E-05    40   0.181E-02
  91 F= -.18368702E+02 E0= -.18368702E+02  d E =0.474444E-02
quench:  g(F)=  0.000E+00 g(S)=  0.000E+00 dE (1.order)= 0.000E+00
 bond charge predicted
       N       E                     dE             d eps       ncg     rms          rms(c)
DAV:   1    -0.183695883778E+02   -0.87954E-03   -0.31644E-03    32   0.327E-01    0.145E-02
DAV:   2    -0.183695910030E+02   -0.26251E-05   -0.33702E-05    40   0.328E-02
  92 F= -.18369591E+02 E0= -.18369591E+02  d E =-.888994E-03
quench:  g(F)=  0.000E+00 g(S)=  0.000E+00 dE (1.order)= 0.000E+00
 bond charge predicted
       N       E                     dE             d eps       ncg     rms          rms(c)
DAV:   1    -0.183684807898E+02    0.11076E-02   -0.63193E-04    32   0.140E-01    0.868E-03
DAV:   2    -0.183684813555E+02   -0.56564E-06   -0.62247E-06    40   0.121E-02
  93 F= -.18368481E+02 E0= -.18368481E+02  d E =0.110965E-02
quench:  g(F)=  0.000E+00 g(S)=  0.000E+00 dE (1.order)= 0.000E+00
 bond charge predicted
       N       E                     dE             d eps       ncg     rms          rms(c)
DAV:   1    -0.183674655625E+02    0.10152E-02   -0.86853E-04    32   0.174E-01    0.866E-03
DAV:   2    -0.183674651533E+02    0.40919E-06   -0.10394E-05    40   0.171E-02
  94 F= -.18367465E+02 E0= -.18367465E+02  d E =0.101620E-02
quench:  g(F)=  0.000E+00 g(S)=  0.000E+00 dE (1.order)= 0.000E+00
 bond charge predicted
       N       E                     dE             d eps       ncg     rms          rms(c)
DAV:   1    -0.183684328068E+02   -0.96724E-03   -0.10330E-03    32   0.178E-01    0.969E-03
DAV:   2    -0.183684330655E+02   -0.25870E-06   -0.94901E-06    40   0.159E-02
  95 F= -.18368433E+02 E0= -.18368433E+02  d E =-.967912E-03
quench:  g(F)=  0.000E+00 g(S)=  0.000E+00 dE (1.order)= 0.000E+00
 bond charge predicted
       N       E                     dE             d eps       ncg     rms          rms(c)
DAV:   1    -0.183991774071E+02   -0.30745E-01   -0.80996E-01    32   0.503E+00    0.302E-01
DAV:   2    -0.183989117243E+02    0.26568E-03   -0.68637E-03    40   0.395E-01    0.166E-01
DAV:   3    -0.183985777605E+02    0.33396E-03   -0.14346E-03    48   0.139E-01    0.282E-02
DAV:   4    -0.183985862142E+02   -0.84537E-05   -0.10019E-04    32   0.409E-02    0.143E-02
DAV:   5    -0.183985963303E+02   -0.10116E-04   -0.11935E-05    40   0.181E-02    0.436E-03
DAV:   6    -0.183986097385E+02   -0.13408E-04   -0.26177E-06    32   0.812E-03    0.159E-03
DAV:   7    -0.183986289441E+02   -0.19206E-04   -0.31693E-06    48   0.576E-03    0.860E-04
DAV:   8    -0.183986437273E+02   -0.14783E-04   -0.21228E-06    32   0.443E-03    0.528E-04
DAV:   9    -0.183986554487E+02   -0.11721E-04   -0.26047E-06    40   0.446E-03    0.328E-04
DAV:  10    -0.183986615610E+02   -0.61123E-05   -0.82686E-07    32   0.277E-03
  96 F= -.18398662E+02 E0= -.18398662E+02  d E =-.302285E-01
quench:  g(F)=  0.000E+00 g(S)=  0.000E+00 dE (1.order)= 0.000E+00
 bond charge predicted
       N       E                     dE             d eps       ncg     rms          rms(c)
DAV:   1    -0.183803942266E+02    0.18261E-01   -0.36876E-01    32   0.338E+00    0.200E-01
DAV:   2    -0.183803080517E+02    0.86175E-04   -0.35594E-03    48   0.288E-01    0.112E-01
DAV:   3    -0.183801384231E+02    0.16963E-03   -0.64524E-04    32   0.973E-02    0.206E-02
DAV:   4    -0.183801414108E+02   -0.29877E-05   -0.50715E-05    32   0.324E-02
  97 F= -.18380141E+02 E0= -.18380141E+02  d E =0.185202E-01
quench:  g(F)=  0.000E+00 g(S)=  0.000E+00 dE (1.order)= 0.000E+00
 bond charge predicted
       N       E                     dE             d eps       ncg     rms          rms(c)
DAV:   1    -0.182907758210E+02    0.89363E-01   -0.56187E+00    32   0.135E+01    0.764E-01
DAV:   2    -0.182883957186E+02    0.23801E-02   -0.59829E-02    48   0.119E+00    0.421E-01
DAV:   3    -0.182868844163E+02    0.15113E-02   -0.89877E-03    56   0.355E-01    0.106E-01
DAV:   4    -0.182868967816E+02   -0.12365E-04   -0.13663E-03    40   0.152E-01    0.472E-02
DAV:   5    -0.182869065551E+02   -0.97735E-05   -0.12945E-04    48   0.575E-02    0.173E-02
DAV:   6    -0.182870149328E+02   -0.10838E-03   -0.61994E-05    32   0.340E-02    0.684E-03
DAV:   7    -0.182871782331E+02   -0.16330E-03   -0.29588E-05    40   0.210E-02    0.344E-03
DAV:   8    -0.182873801950E+02   -0.20196E-03   -0.43785E-05    32   0.228E-02    0.232E-03
DAV:   9    -0.182875271986E+02   -0.14700E-03   -0.34729E-05    48   0.173E-02    0.119E-03
DAV:  10    -0.182875967478E+02   -0.69549E-04   -0.74011E-06    40   0.800E-03    0.819E-04
DAV:  11    -0.182876381177E+02   -0.41370E-04   -0.19712E-06    48   0.577E-03    0.461E-04
DAV:  12    -0.182876500262E+02   -0.11909E-04   -0.34276E-07    32   0.302E-03    0.250E-04
DAV:  13    -0.182876586766E+02   -0.86504E-05   -0.65906E-07    32   0.308E-03
  98 F= -.18287659E+02 E0= -.18287659E+02  d E =0.924827E-01
quench:  g(F)=  0.000E+00 g(S)=  0.000E+00 dE (1.order)= 0.000E+00
 bond charge predicted
       N       E                     dE             d eps       ncg     rms          rms(c)
DAV:   1    -0.183815823454E+02   -0.93932E-01   -0.53414E+00    32   0.131E+01    0.741E-01
DAV:   2    -0.183795654407E+02    0.20169E-02   -0.49689E-02    48   0.111E+00    0.408E-01
DAV:   3    -0.183776739514E+02    0.18915E-02   -0.77680E-03    48   0.351E-01    0.848E-02
DAV:   4    -0.183776316417E+02    0.42310E-04   -0.36112E-04    32   0.914E-02    0.379E-02
DAV:   5    -0.183777390211E+02   -0.10738E-03   -0.11170E-04    32   0.500E-02    0.807E-03
DAV:   6    -0.183778576226E+02   -0.11860E-03   -0.17017E-05    40   0.172E-02    0.493E-03
DAV:   7    -0.183781094425E+02   -0.25182E-03   -0.40308E-05    40   0.214E-02    0.288E-03
DAV:   8    -0.183783430139E+02   -0.23357E-03   -0.39135E-05    48   0.195E-02    0.165E-03
DAV:   9    -0.183784718917E+02   -0.12888E-03   -0.18845E-05    40   0.134E-02    0.108E-03
DAV:  10    -0.183785451090E+02   -0.73217E-04   -0.60081E-06    40   0.835E-03    0.492E-04
DAV:  11    -0.183785697431E+02   -0.24634E-04   -0.10531E-06    48   0.488E-03    0.344E-04
DAV:  12    -0.183785819201E+02   -0.12177E-04   -0.86008E-07    32   0.356E-03    0.172E-04
DAV:  13    -0.183785834343E+02   -0.15141E-05   -0.11810E-08    56   0.535E-04
  99 F= -.18378583E+02 E0= -.18378583E+02  d E =-.909248E-01
quench:  g(F)=  0.000E+00 g(S)=  0.000E+00 dE (1.order)= 0.000E+00
 bond charge predicted
       N       E                     dE             d eps       ncg     rms          rms(c)
DAV:   1    -0.183613902598E+02    0.17192E-01   -0.29053E-01    32   0.302E+00    0.184E-01
DAV:   2    -0.183611129569E+02    0.27730E-03   -0.58325E-03    40   0.371E-01    0.112E-01
DAV:   3    -0.183609651471E+02    0.14781E-03   -0.93471E-04    48   0.138E-01    0.433E-02
DAV:   4    -0.183609379683E+02    0.27179E-04   -0.29964E-04    32   0.733E-02    0.168E-02
DAV:   5    -0.183609440097E+02   -0.60414E-05   -0.96194E-05    32   0.389E-02
 100 F= -.18360944E+02 E0= -.18360944E+02  d E =0.176394E-01
quench:  g(F)=  0.000E+00 g(S)=  0.000E+00 dE (1.order)= 0.000E+00
 writing wavefunctions
