 vasp.5.4.1 05Feb16 (build Nov 22 2018 20:17:51) complex                        
  
 POSCAR found type information on POSCAR  Cu Ag
 02/POSCAR found :  2 types and      37 ions
 scaLAPACK will be used

 ----------------------------------------------------------------------------- 
|                                                                             |
|           W    W    AA    RRRRR   N    N  II  N    N   GGGG   !!!           |
|           W    W   A  A   R    R  NN   N  II  NN   N  G    G  !!!           |
|           W    W  A    A  R    R  N N  N  II  N N  N  G       !!!           |
|           W WW W  AAAAAA  RRRRR   N  N N  II  N  N N  G  GGG   !            |
|           WW  WW  A    A  R   R   N   NN  II  N   NN  G    G                |
|           W    W  A    A  R    R  N    N  II  N    N   GGGG   !!!           |
|                                                                             |
|      For optimal performance we recommend to set                            |
|        NCORE= 4 - approx SQRT( number of cores)                             |
|      NCORE specifies how many cores store one orbital (NPAR=cpu/NCORE).     |
|      This setting can  greatly improve the performance of VASP for DFT.     |
|      The default, NPAR=number of cores might be grossly inefficient         |
|      on modern multi-core architectures or massively parallel machines.     |
|      Do your own testing !!!!                                               |
|      Unfortunately you need to use the default for GW and RPA calculations. |
|      (for HF NCORE is supported but not extensively tested yet)             |
|                                                                             |
 ----------------------------------------------------------------------------- 

 LDA part: xc-table for Ceperly-Alder, standard interpolation
 POSCAR found type information on POSCAR  Cu Ag
 00/POSCAR found :  2 types and      37 ions
 POSCAR found type information on POSCAR  Cu Ag
 06/POSCAR found :  2 types and      37 ions
 Jacobian:    19.6723208379109     
 POSCAR, INCAR and KPOINTS ok, starting setup
 WARNING: small aliasing (wrap around) errors must be expected
 FFT: planning ...
 WAVECAR not read
 entering main loop
       N       E                     dE             d eps       ncg     rms          rms(c)
DAV:   1     0.307943233482E+04    0.30794E+04   -0.17793E+05  4464   0.177E+03
DAV:   2     0.170446134733E+03   -0.29090E+04   -0.27667E+04  4464   0.404E+02
DAV:   3    -0.143457973280E+03   -0.31390E+03   -0.29563E+03  4616   0.167E+02
DAV:   4    -0.155651178685E+03   -0.12193E+02   -0.12026E+02  4808   0.368E+01
DAV:   5    -0.155764777532E+03   -0.11360E+00   -0.11347E+00  4856   0.301E+00    0.397E+01
DAV:   6    -0.141017829378E+03    0.14747E+02   -0.31475E+02  4872   0.936E+01    0.200E+01
DAV:   7    -0.128165045461E+03    0.12853E+02   -0.61067E+01  5000   0.489E+01    0.298E+00
DAV:   8    -0.128755923936E+03   -0.59088E+00   -0.60983E+00  5144   0.372E+01    0.467E+00
DAV:   9    -0.128191302136E+03    0.56462E+00   -0.22371E+00  5720   0.286E+01    0.255E+00
DAV:  10    -0.128105172630E+03    0.86130E-01   -0.63109E-01  6032   0.972E+00    0.189E+00
DAV:  11    -0.128067614340E+03    0.37558E-01   -0.60994E-01  4696   0.636E+00    0.856E-01
DAV:  12    -0.128068280618E+03   -0.66628E-03   -0.11351E-01  4816   0.191E+00    0.617E-01
DAV:  13    -0.128061290968E+03    0.69897E-02   -0.38985E-02  4800   0.225E+00    0.396E-01
DAV:  14    -0.128057181549E+03    0.41094E-02   -0.15327E-02  4824   0.119E+00    0.214E-01
DAV:  15    -0.128053544377E+03    0.36372E-02   -0.12257E-02  4688   0.105E+00    0.190E-01
DAV:  16    -0.128051013302E+03    0.25311E-02   -0.59549E-03  4704   0.566E-01    0.824E-02
DAV:  17    -0.128050158118E+03    0.85518E-03   -0.20138E-03  4648   0.382E-01    0.686E-02
DAV:  18    -0.128050293630E+03   -0.13551E-03   -0.81756E-04  4664   0.285E-01    0.655E-02
DAV:  19    -0.128051809824E+03   -0.15162E-02   -0.12564E-03  4592   0.330E-01    0.479E-02
DAV:  20    -0.128053683661E+03   -0.18738E-02   -0.32096E-04  4976   0.181E-01    0.611E-02
DAV:  21    -0.128054393175E+03   -0.70951E-03   -0.57538E-04  4640   0.490E-01    0.272E-02
DAV:  22    -0.128054795825E+03   -0.40265E-03   -0.35642E-04  4664   0.865E-02    0.161E-02
DAV:  23    -0.128054874527E+03   -0.78702E-04   -0.69794E-05  4616   0.475E-02    0.245E-02
DAV:  24    -0.128054886929E+03   -0.12402E-04   -0.40360E-05  3984   0.396E-02    0.116E-02
DAV:  25    -0.128054895730E+03   -0.88014E-05   -0.31897E-05  2824   0.140E-01
   1 F= -.12805490E+03 E0= -.12801499E+03  d E =-.128055E+03
quench:  g(F)=  0.000E+00 g(S)=  0.000E+00 dE (1.order)= 0.000E+00
 bond charge predicted
       N       E                     dE             d eps       ncg     rms          rms(c)
DAV:   1    -0.128056821833E+03   -0.19349E-02   -0.35296E-02  4640   0.389E-01    0.147E-02
DAV:   2    -0.128056931344E+03   -0.10951E-03   -0.27203E-04  5240   0.424E-01    0.398E-02
DAV:   3    -0.128056819467E+03    0.11188E-03   -0.16001E-04  5048   0.332E-01    0.656E-03
DAV:   4    -0.128056825573E+03   -0.61060E-05   -0.61131E-05  4608   0.362E-02
   2 F= -.12805683E+03 E0= -.12801688E+03  d E =-.192984E-02
quench:  g(F)=  0.000E+00 g(S)=  0.000E+00 dE (1.order)= 0.000E+00
 bond charge predicted
       N       E                     dE             d eps       ncg     rms          rms(c)
DAV:   1    -0.128073788594E+03   -0.16969E-01   -0.61925E+00  4464   0.516E+00    0.160E-01
DAV:   2    -0.128076257436E+03   -0.24688E-02   -0.31694E-02  4736   0.944E-01    0.150E-01
DAV:   3    -0.128076200218E+03    0.57218E-04   -0.46685E-03  4784   0.771E-01    0.864E-02
DAV:   4    -0.128076040661E+03    0.15956E-03   -0.66578E-04  4720   0.276E-01    0.411E-02
DAV:   5    -0.128076017374E+03    0.23287E-04   -0.28011E-04  5368   0.126E-01    0.142E-02
DAV:   6    -0.128076040124E+03   -0.22750E-04   -0.14789E-04  4720   0.270E-01    0.236E-02
DAV:   7    -0.128076012812E+03    0.27312E-04   -0.41449E-05  2960   0.173E-01    0.574E-03
DAV:   8    -0.128076012695E+03    0.11698E-06   -0.89948E-06  2680   0.331E-02
   3 F= -.12807601E+03 E0= -.12803612E+03  d E =-.191871E-01
quench:  g(F)=  0.000E+00 g(S)=  0.000E+00 dE (1.order)= 0.000E+00
 bond charge predicted
       N       E                     dE             d eps       ncg     rms          rms(c)
DAV:   1    -0.128089390806E+03   -0.13378E-01   -0.17560E+01  4464   0.903E+00    0.263E-01
DAV:   2    -0.128093638846E+03   -0.42480E-02   -0.61224E-02  4728   0.148E+00    0.253E-01
DAV:   3    -0.128093283260E+03    0.35559E-03   -0.10658E-02  4832   0.129E+00    0.149E-01
DAV:   4    -0.128093476547E+03   -0.19329E-03   -0.24602E-03  5656   0.117E+00    0.111E-01
DAV:   5    -0.128092633864E+03    0.84268E-03   -0.22261E-03  5136   0.125E+00    0.541E-02
DAV:   6    -0.128092603587E+03    0.30277E-04   -0.94435E-04  5520   0.355E-01    0.196E-02
DAV:   7    -0.128092618559E+03   -0.14972E-04   -0.30369E-04  4768   0.975E-02    0.138E-02
DAV:   8    -0.128092620234E+03   -0.16752E-05   -0.76831E-05  4600   0.646E-02
   4 F= -.12809262E+03 E0= -.12805260E+03  d E =-.166075E-01
quench:  g(F)=  0.000E+00 g(S)=  0.000E+00 dE (1.order)= 0.000E+00
 bond charge predicted
       N       E                     dE             d eps       ncg     rms          rms(c)
DAV:   1    -0.128099579014E+03   -0.69605E-02   -0.17826E+01  4464   0.917E+00    0.252E-01
DAV:   2    -0.128102716034E+03   -0.31370E-02   -0.49139E-02  4736   0.118E+00    0.222E-01
DAV:   3    -0.128102499613E+03    0.21642E-03   -0.78193E-03  4816   0.132E+00    0.163E-01
DAV:   4    -0.128102994965E+03   -0.49535E-03   -0.36851E-03  6320   0.161E+00    0.135E-01
DAV:   5    -0.128101607035E+03    0.13879E-02   -0.26757E-03  7736   0.124E+00    0.517E-02
DAV:   6    -0.128101613682E+03   -0.66475E-05   -0.84638E-04  4768   0.217E-01    0.286E-02
DAV:   7    -0.128101610590E+03    0.30926E-05   -0.13807E-04  4656   0.739E-02    0.196E-02
DAV:   8    -0.128101604234E+03    0.63562E-05   -0.23899E-05  2952   0.345E-02
   5 F= -.12810160E+03 E0= -.12806134E+03  d E =-.898400E-02
quench:  g(F)=  0.000E+00 g(S)=  0.000E+00 dE (1.order)= 0.000E+00
 bond charge predicted
       N       E                     dE             d eps       ncg     rms          rms(c)
DAV:   1    -0.128100143900E+03    0.14667E-02   -0.35384E+01  4464   0.127E+01    0.348E-01
DAV:   2    -0.128110654828E+03   -0.10511E-01   -0.14205E-01  4776   0.162E+00    0.289E-01
DAV:   3    -0.128110416373E+03    0.23845E-03   -0.15135E-02  4712   0.171E+00    0.214E-01
DAV:   4    -0.128110170578E+03    0.24579E-03   -0.49930E-03  4848   0.183E+00    0.163E-01
DAV:   5    -0.128109134507E+03    0.10361E-02   -0.36879E-03  6216   0.160E+00    0.930E-02
DAV:   6    -0.128108824122E+03    0.31039E-03   -0.23486E-03  7000   0.630E-01    0.249E-02
DAV:   7    -0.128108863380E+03   -0.39258E-04   -0.66051E-04  4752   0.125E-01    0.212E-02
DAV:   8    -0.128108862459E+03    0.92138E-06   -0.10958E-04  4576   0.880E-02    0.145E-02
DAV:   9    -0.128108859580E+03    0.28789E-05   -0.27009E-05  3248   0.432E-02
   6 F= -.12810886E+03 E0= -.12806822E+03  d E =-.725535E-02
quench:  g(F)=  0.000E+00 g(S)=  0.000E+00 dE (1.order)= 0.000E+00
 bond charge predicted
       N       E                     dE             d eps       ncg     rms          rms(c)
DAV:   1    -0.128062601714E+03    0.46261E-01   -0.88746E+01  4464   0.196E+01    0.545E-01
DAV:   2    -0.128096450000E+03   -0.33848E-01   -0.41785E-01  4936   0.330E+00    0.563E-01
DAV:   3    -0.128093972915E+03    0.24771E-02   -0.46364E-02  4672   0.274E+00    0.313E-01
DAV:   4    -0.128093543426E+03    0.42949E-03   -0.95032E-03  5064   0.221E+00    0.263E-01
DAV:   5    -0.128091618425E+03    0.19250E-02   -0.10059E-02  5192   0.267E+00    0.177E-01
DAV:   6    -0.128090449864E+03    0.11686E-02   -0.68982E-03  7112   0.111E+00    0.451E-02
DAV:   7    -0.128090569081E+03   -0.11922E-03   -0.21842E-03  4672   0.212E-01    0.363E-02
DAV:   8    -0.128090559625E+03    0.94554E-05   -0.29955E-04  4736   0.131E-01    0.218E-02
DAV:   9    -0.128090550160E+03    0.94651E-05   -0.93321E-05  4600   0.783E-02
   7 F= -.12809055E+03 E0= -.12804984E+03  d E =0.183094E-01
quench:  g(F)=  0.000E+00 g(S)=  0.000E+00 dE (1.order)= 0.000E+00
 bond charge predicted
       N       E                     dE             d eps       ncg     rms          rms(c)
DAV:   1    -0.128045697084E+03    0.44863E-01   -0.86699E+01  4464   0.183E+01    0.538E-01
DAV:   2    -0.128093791994E+03   -0.48095E-01   -0.56636E-01  4648   0.287E+00    0.458E-01
DAV:   3    -0.128093501380E+03    0.29061E-03   -0.44013E-02  4752   0.233E+00    0.293E-01
DAV:   4    -0.128093073065E+03    0.42832E-03   -0.93055E-03  4840   0.210E+00    0.250E-01
DAV:   5    -0.128092260229E+03    0.81284E-03   -0.62403E-03  5168   0.214E+00    0.195E-01
DAV:   6    -0.128090765794E+03    0.14944E-02   -0.52444E-03  7440   0.116E+00    0.372E-02
DAV:   7    -0.128090883850E+03   -0.11806E-03   -0.18316E-03  4752   0.312E-01    0.350E-02
DAV:   8    -0.128090880075E+03    0.37759E-05   -0.44950E-04  4624   0.199E-01    0.250E-02
DAV:   9    -0.128090869495E+03    0.10580E-04   -0.76411E-05  4928   0.831E-02    0.136E-02
DAV:  10    -0.128090870437E+03   -0.94243E-06   -0.62788E-05  4600   0.729E-02
   8 F= -.12809087E+03 E0= -.12804882E+03  d E =-.320277E-03
quench:  g(F)=  0.000E+00 g(S)=  0.000E+00 dE (1.order)= 0.000E+00
 bond charge predicted
       N       E                     dE             d eps       ncg     rms          rms(c)
DAV:   1    -0.127939198111E+03    0.15167E+00   -0.21081E+02  4464   0.247E+01    0.669E-01
DAV:   2    -0.128102901082E+03   -0.16370E+00   -0.17585E+00  5264   0.419E+00    0.658E-01
DAV:   3    -0.128101537851E+03    0.13632E-02   -0.89966E-02  4696   0.317E+00    0.422E-01
DAV:   4    -0.128099971142E+03    0.15667E-02   -0.13511E-02  4760   0.215E+00    0.355E-01
DAV:   5    -0.128098017427E+03    0.19537E-02   -0.54591E-03  5080   0.157E+00    0.289E-01
DAV:   6    -0.128095503897E+03    0.25135E-02   -0.10423E-02  6272   0.101E+00    0.718E-02
DAV:   7    -0.128095670787E+03   -0.16689E-03   -0.32022E-03  4704   0.437E-01    0.475E-02
DAV:   8    -0.128095683435E+03   -0.12647E-04   -0.75141E-04  4608   0.241E-01    0.383E-02
DAV:   9    -0.128095644156E+03    0.39279E-04   -0.18846E-04  4832   0.149E-01    0.155E-02
DAV:  10    -0.128095650548E+03   -0.63924E-05   -0.10060E-04  4576   0.653E-02    0.818E-03
DAV:  11    -0.128095652308E+03   -0.17600E-05   -0.18998E-05  3224   0.434E-02
   9 F= -.12809565E+03 E0= -.12805447E+03  d E =-.478187E-02
quench:  g(F)=  0.000E+00 g(S)=  0.000E+00 dE (1.order)= 0.000E+00
 bond charge predicted
       N       E                     dE             d eps       ncg     rms          rms(c)
DAV:   1    -0.128088716084E+03    0.69345E-02   -0.75480E+01  4464   0.175E+01    0.481E-01
DAV:   2    -0.128124800589E+03   -0.36085E-01   -0.41853E-01  5336   0.343E+00    0.530E-01
DAV:   3    -0.128122351426E+03    0.24492E-02   -0.38131E-02  4776   0.273E+00    0.275E-01
DAV:   4    -0.128122286125E+03    0.65301E-04   -0.81658E-03  5032   0.209E+00    0.258E-01
DAV:   5    -0.128119949344E+03    0.23368E-02   -0.61655E-03  5152   0.193E+00    0.144E-01
DAV:   6    -0.128119631316E+03    0.31803E-03   -0.66837E-03  6136   0.662E-01    0.553E-02
DAV:   7    -0.128119631493E+03   -0.17705E-06   -0.11857E-03  4712   0.311E-01    0.378E-02
DAV:   8    -0.128119630410E+03    0.10836E-05   -0.50117E-04  4704   0.170E-01    0.203E-02
DAV:   9    -0.128119627022E+03    0.33879E-05   -0.12624E-04  4616   0.740E-02    0.107E-02
DAV:  10    -0.128119626709E+03    0.31217E-06   -0.12481E-05  2840   0.561E-02
  10 F= -.12811963E+03 E0= -.12807903E+03  d E =-.239744E-01
quench:  g(F)=  0.000E+00 g(S)=  0.000E+00 dE (1.order)= 0.000E+00
 bond charge predicted
       N       E                     dE             d eps       ncg     rms          rms(c)
DAV:   1    -0.128056853334E+03    0.62774E-01   -0.11328E+02  4464   0.182E+01    0.444E-01
DAV:   2    -0.128135663347E+03   -0.78810E-01   -0.83396E-01  4976   0.259E+00    0.439E-01
DAV:   3    -0.128133822289E+03    0.18411E-02   -0.28895E-02  4608   0.155E+00    0.283E-01
DAV:   4    -0.128132871087E+03    0.95120E-03   -0.38549E-03  4776   0.896E-01    0.245E-01
DAV:   5    -0.128132654173E+03    0.21691E-03   -0.39736E-03  5392   0.155E+00    0.201E-01
DAV:   6    -0.128130802354E+03    0.18518E-02   -0.47292E-03  7368   0.141E+00    0.537E-02
DAV:   7    -0.128130889923E+03   -0.87568E-04   -0.23881E-03  5880   0.385E-01    0.343E-02
DAV:   8    -0.128130901167E+03   -0.11244E-04   -0.57591E-04  4656   0.186E-01    0.281E-02
DAV:   9    -0.128130890637E+03    0.10530E-04   -0.97031E-05  4712   0.769E-02    0.197E-02
DAV:  10    -0.128130882378E+03    0.82590E-05   -0.96834E-05  4664   0.684E-02
  11 F= -.12813088E+03 E0= -.12808984E+03  d E =-.112557E-01
quench:  g(F)=  0.000E+00 g(S)=  0.000E+00 dE (1.order)= 0.000E+00
 bond charge predicted
       N       E                     dE             d eps       ncg     rms          rms(c)
DAV:   1    -0.128111990225E+03    0.18900E-01   -0.45561E+01  4464   0.109E+01    0.249E-01
DAV:   2    -0.128141883848E+03   -0.29894E-01   -0.31195E-01  4768   0.140E+00    0.238E-01
DAV:   3    -0.128141420917E+03    0.46293E-03   -0.91799E-03  4856   0.932E-01    0.172E-01
DAV:   4    -0.128141175231E+03    0.24569E-03   -0.14847E-03  4800   0.753E-01    0.153E-01
DAV:   5    -0.128140718257E+03    0.45697E-03   -0.84455E-04  6160   0.630E-01    0.114E-01
DAV:   6    -0.128140253712E+03    0.46454E-03   -0.18768E-03  6624   0.453E-01    0.291E-02
DAV:   7    -0.128140288002E+03   -0.34289E-04   -0.52010E-04  4720   0.183E-01    0.213E-02
DAV:   8    -0.128140286970E+03    0.10312E-05   -0.11230E-04  4648   0.945E-02    0.154E-02
DAV:   9    -0.128140282829E+03    0.41409E-05   -0.42695E-05  4224   0.479E-02
  12 F= -.12814028E+03 E0= -.12809954E+03  d E =-.940045E-02
quench:  g(F)=  0.000E+00 g(S)=  0.000E+00 dE (1.order)= 0.000E+00
 bond charge predicted
       N       E                     dE             d eps       ncg     rms          rms(c)
DAV:   1    -0.128136633459E+03    0.36535E-02   -0.31530E+01  4464   0.107E+01    0.261E-01
DAV:   2    -0.128151462350E+03   -0.14829E-01   -0.16547E-01  4896   0.135E+00    0.235E-01
DAV:   3    -0.128151079401E+03    0.38295E-03   -0.82695E-03  4832   0.123E+00    0.169E-01
DAV:   4    -0.128150771517E+03    0.30788E-03   -0.21442E-03  5248   0.115E+00    0.139E-01
DAV:   5    -0.128150281270E+03    0.49025E-03   -0.19028E-03  7248   0.105E+00    0.908E-02
DAV:   6    -0.128149950886E+03    0.33038E-03   -0.18487E-03  6984   0.557E-01    0.244E-02
DAV:   7    -0.128149979976E+03   -0.29091E-04   -0.49750E-04  4768   0.129E-01    0.220E-02
DAV:   8    -0.128149975397E+03    0.45794E-05   -0.12396E-04  4552   0.991E-02    0.127E-02
DAV:   9    -0.128149971318E+03    0.40788E-05   -0.21703E-05  3232   0.384E-02
  13 F= -.12814997E+03 E0= -.12810960E+03  d E =-.968849E-02
quench:  g(F)=  0.000E+00 g(S)=  0.000E+00 dE (1.order)= 0.000E+00
 bond charge predicted
       N       E                     dE             d eps       ncg     rms          rms(c)
DAV:   1    -0.128126665414E+03    0.23310E-01   -0.10312E+02  4464   0.200E+01    0.526E-01
DAV:   2    -0.128174480679E+03   -0.47815E-01   -0.55757E-01  5216   0.274E+00    0.479E-01
DAV:   3    -0.128172972209E+03    0.15085E-02   -0.33303E-02  4800   0.271E+00    0.322E-01
DAV:   4    -0.128171699343E+03    0.12729E-02   -0.88837E-03  5288   0.239E+00    0.269E-01
DAV:   5    -0.128169445580E+03    0.22538E-02   -0.75115E-03  6960   0.194E+00    0.158E-01
DAV:   6    -0.128168673287E+03    0.77229E-03   -0.68667E-03  6632   0.983E-01    0.549E-02
DAV:   7    -0.128168723015E+03   -0.49728E-04   -0.16693E-03  4824   0.318E-01    0.394E-02
DAV:   8    -0.128168721610E+03    0.14046E-05   -0.73616E-04  4648   0.211E-01    0.274E-02
DAV:   9    -0.128168713521E+03    0.80893E-05   -0.10954E-04  4544   0.103E-01    0.171E-02
DAV:  10    -0.128168710155E+03    0.33657E-05   -0.38442E-05  4344   0.830E-02
  14 F= -.12816871E+03 E0= -.12812841E+03  d E =-.187388E-01
quench:  g(F)=  0.000E+00 g(S)=  0.000E+00 dE (1.order)= 0.000E+00
 bond charge predicted
       N       E                     dE             d eps       ncg     rms          rms(c)
DAV:   1    -0.127990778527E+03    0.17793E+00   -0.52175E+02  4464   0.493E+01    0.148E+00
DAV:   2    -0.128248789710E+03   -0.25801E+00   -0.31580E+00  5432   0.113E+01    0.167E+00
DAV:   3    -0.128223373333E+03    0.25416E-01   -0.35107E-01  4848   0.103E+01    0.793E-01
DAV:   4    -0.128210958462E+03    0.12415E-01   -0.73058E-02  5696   0.635E+00    0.732E-01
DAV:   5    -0.128191032546E+03    0.19926E-01   -0.71592E-02  5056   0.490E+00    0.393E-01
DAV:   6    -0.128192763226E+03   -0.17307E-02   -0.63792E-02  5672   0.234E+00    0.310E-01
DAV:   7    -0.128191449956E+03    0.13133E-02   -0.15928E-02  4704   0.155E+00    0.928E-02
DAV:   8    -0.128191597074E+03   -0.14712E-03   -0.49219E-03  4608   0.452E-01    0.697E-02
DAV:   9    -0.128191613166E+03   -0.16093E-04   -0.13566E-03  4656   0.330E-01    0.374E-02
DAV:  10    -0.128191603229E+03    0.99375E-05   -0.25075E-04  4600   0.211E-01    0.238E-02
DAV:  11    -0.128191605193E+03   -0.19641E-05   -0.11159E-04  4544   0.902E-02    0.119E-02
DAV:  12    -0.128191606299E+03   -0.11064E-05   -0.25990E-05  3064   0.670E-02
  15 F= -.12819161E+03 E0= -.12815203E+03  d E =-.228961E-01
quench:  g(F)=  0.000E+00 g(S)=  0.000E+00 dE (1.order)= 0.000E+00
 bond charge predicted
       N       E                     dE             d eps       ncg     rms          rms(c)
DAV:   1    -0.128180772073E+03    0.10833E-01   -0.71629E+01  4464   0.180E+01    0.533E-01
DAV:   2    -0.128202642993E+03   -0.21871E-01   -0.29341E-01  5016   0.357E+00    0.571E-01
DAV:   3    -0.128199155316E+03    0.34877E-02   -0.40622E-02  4760   0.294E+00    0.285E-01
DAV:   4    -0.128201043152E+03   -0.18878E-02   -0.12176E-02  5152   0.276E+00    0.295E-01
DAV:   5    -0.128195878148E+03    0.51650E-02   -0.98340E-03  5344   0.250E+00    0.891E-02
DAV:   6    -0.128196224206E+03   -0.34606E-03   -0.62106E-03  5696   0.508E-01    0.616E-02
DAV:   7    -0.128196205505E+03    0.18701E-04   -0.10259E-03  4656   0.282E-01    0.359E-02
DAV:   8    -0.128196188911E+03    0.16594E-04   -0.23232E-04  4720   0.110E-01    0.205E-02
DAV:   9    -0.128196179453E+03    0.94579E-05   -0.10455E-04  4696   0.481E-02    0.788E-03
DAV:  10    -0.128196178459E+03    0.99369E-06   -0.17044E-05  2816   0.383E-02
  16 F= -.12819618E+03 E0= -.12815665E+03  d E =-.457216E-02
quench:  g(F)=  0.000E+00 g(S)=  0.000E+00 dE (1.order)= 0.000E+00
 bond charge predicted
       N       E                     dE             d eps       ncg     rms          rms(c)
DAV:   1    -0.128195132214E+03    0.10472E-02   -0.13639E+01  4464   0.727E+00    0.183E-01
DAV:   2    -0.128201014542E+03   -0.58823E-02   -0.67365E-02  4664   0.899E-01    0.157E-01
DAV:   3    -0.128200799966E+03    0.21458E-03   -0.38495E-03  4744   0.702E-01    0.113E-01
DAV:   4    -0.128200594496E+03    0.20547E-03   -0.80676E-04  5040   0.614E-01    0.808E-02
DAV:   5    -0.128200745101E+03   -0.15060E-03   -0.11808E-03  5792   0.937E-01    0.827E-02
DAV:   6    -0.128200341243E+03    0.40386E-03   -0.89557E-04  8040   0.618E-01    0.159E-02
DAV:   7    -0.128200357818E+03   -0.16575E-04   -0.26320E-04  4968   0.825E-02    0.127E-02
DAV:   8    -0.128200356766E+03    0.10527E-05   -0.30544E-05  3624   0.398E-02
  17 F= -.12820036E+03 E0= -.12816065E+03  d E =-.417831E-02
quench:  g(F)=  0.000E+00 g(S)=  0.000E+00 dE (1.order)= 0.000E+00
 bond charge predicted
       N       E                     dE             d eps       ncg     rms          rms(c)
DAV:   1    -0.128195313167E+03    0.50447E-02   -0.39203E+01  4464   0.131E+01    0.343E-01
DAV:   2    -0.128206497178E+03   -0.11184E-01   -0.14584E-01  4624   0.157E+00    0.302E-01
DAV:   3    -0.128205471835E+03    0.10253E-02   -0.10865E-02  4976   0.145E+00    0.205E-01
DAV:   4    -0.128205328061E+03    0.14377E-03   -0.40918E-03  5728   0.165E+00    0.155E-01
DAV:   5    -0.128204231184E+03    0.10969E-02   -0.46470E-03  7680   0.174E+00    0.966E-02
DAV:   6    -0.128203815297E+03    0.41589E-03   -0.20463E-03  7432   0.727E-01    0.262E-02
DAV:   7    -0.128203842318E+03   -0.27021E-04   -0.59986E-04  4688   0.149E-01    0.211E-02
DAV:   8    -0.128203847924E+03   -0.56057E-05   -0.17160E-04  4648   0.799E-02    0.151E-02
DAV:   9    -0.128203841247E+03    0.66762E-05   -0.25741E-05  3264   0.435E-02
  18 F= -.12820384E+03 E0= -.12816382E+03  d E =-.348448E-02
quench:  g(F)=  0.000E+00 g(S)=  0.000E+00 dE (1.order)= 0.000E+00
 bond charge predicted
       N       E                     dE             d eps       ncg     rms          rms(c)
DAV:   1    -0.128144259202E+03    0.59589E-01   -0.13269E+02  4464   0.238E+01    0.675E-01
DAV:   2    -0.128198513908E+03   -0.54255E-01   -0.67876E-01  4864   0.346E+00    0.604E-01
DAV:   3    -0.128196068240E+03    0.24457E-02   -0.59866E-02  4840   0.327E+00    0.391E-01
DAV:   4    -0.128195224756E+03    0.84348E-03   -0.16059E-02  5088   0.304E+00    0.328E-01
DAV:   5    -0.128192123647E+03    0.31011E-02   -0.12909E-02  5664   0.293E+00    0.215E-01
DAV:   6    -0.128190424508E+03    0.16991E-02   -0.10455E-02  7072   0.131E+00    0.527E-02
DAV:   7    -0.128190600671E+03   -0.17616E-03   -0.30779E-03  4704   0.299E-01    0.479E-02
DAV:   8    -0.128190595615E+03    0.50556E-05   -0.54049E-04  4688   0.208E-01    0.290E-02
DAV:   9    -0.128190577403E+03    0.18212E-04   -0.12312E-04  4680   0.843E-02    0.112E-02
DAV:  10    -0.128190579616E+03   -0.22131E-05   -0.39725E-05  3568   0.551E-02
  19 F= -.12819058E+03 E0= -.12815024E+03  d E =0.132616E-01
quench:  g(F)=  0.000E+00 g(S)=  0.000E+00 dE (1.order)= 0.000E+00
 bond charge predicted
       N       E                     dE             d eps       ncg     rms          rms(c)
DAV:   1    -0.128163050950E+03    0.27526E-01   -0.77968E+01  4464   0.191E+01    0.558E-01
DAV:   2    -0.128183394855E+03   -0.20344E-01   -0.29257E-01  4808   0.300E+00    0.542E-01
DAV:   3    -0.128180741688E+03    0.26532E-02   -0.41543E-02  4888   0.267E+00    0.318E-01
DAV:   4    -0.128179732618E+03    0.10091E-02   -0.10418E-02  6456   0.216E+00    0.221E-01
DAV:   5    -0.128178026065E+03    0.17066E-02   -0.11383E-02  5600   0.274E+00    0.153E-01
DAV:   6    -0.128176958675E+03    0.10674E-02   -0.42363E-03  7064   0.117E+00    0.423E-02
DAV:   7    -0.128177086141E+03   -0.12747E-03   -0.19083E-03  4744   0.230E-01    0.321E-02
DAV:   8    -0.128177088495E+03   -0.23540E-05   -0.30799E-04  4728   0.139E-01    0.203E-02
DAV:   9    -0.128177077782E+03    0.10713E-04   -0.39590E-05  3528   0.505E-02    0.100E-02
DAV:  10    -0.128177076174E+03    0.16085E-05   -0.93886E-06  2760   0.417E-02
  20 F= -.12817708E+03 E0= -.12813610E+03  d E =0.135034E-01
quench:  g(F)=  0.000E+00 g(S)=  0.000E+00 dE (1.order)= 0.000E+00
 bond charge predicted
       N       E                     dE             d eps       ncg     rms          rms(c)
DAV:   1    -0.127949611462E+03    0.22747E+00   -0.29474E+02  4464   0.381E+01    0.130E+00
DAV:   2    -0.128106392004E+03   -0.15678E+00   -0.19077E+00  5128   0.901E+00    0.131E+00
DAV:   3    -0.128097133851E+03    0.92582E-02   -0.32111E-01  4832   0.815E+00    0.651E-01
DAV:   4    -0.128107980272E+03   -0.10846E-01   -0.71440E-02  5072   0.667E+00    0.655E-01
DAV:   5    -0.128085315406E+03    0.22665E-01   -0.41828E-02  4936   0.507E+00    0.216E-01
DAV:   6    -0.128087084343E+03   -0.17689E-02   -0.29571E-02  4800   0.105E+00    0.134E-01
DAV:   7    -0.128087065720E+03    0.18623E-04   -0.52701E-03  4728   0.671E-01    0.619E-02
DAV:   8    -0.128087017332E+03    0.48389E-04   -0.95040E-04  4728   0.225E-01    0.406E-02
DAV:   9    -0.128086990814E+03    0.26518E-04   -0.51658E-04  4560   0.116E-01    0.201E-02
DAV:  10    -0.128086986264E+03    0.45503E-05   -0.60164E-05  4656   0.118E-01
  21 F= -.12808699E+03 E0= -.12804966E+03  d E =0.900899E-01
quench:  g(F)=  0.000E+00 g(S)=  0.000E+00 dE (1.order)= 0.000E+00
 bond charge predicted
       N       E                     dE             d eps       ncg     rms          rms(c)
DAV:   1    -0.128174296366E+03   -0.87306E-01   -0.48198E+01  4496   0.151E+01    0.462E-01
DAV:   2    -0.128195270753E+03   -0.20974E-01   -0.26014E-01  4648   0.271E+00    0.462E-01
DAV:   3    -0.128194349570E+03    0.92118E-03   -0.31652E-02  4808   0.210E+00    0.251E-01
DAV:   4    -0.128192768439E+03    0.15811E-02   -0.36487E-03  6592   0.660E-01    0.843E-02
DAV:   5    -0.128193632360E+03   -0.86392E-03   -0.29126E-03  4952   0.134E+00    0.138E-01
DAV:   6    -0.128192551755E+03    0.10806E-02   -0.16993E-03  4920   0.110E+00    0.321E-02
DAV:   7    -0.128192577832E+03   -0.26077E-04   -0.50018E-04  6352   0.169E-01    0.230E-02
DAV:   8    -0.128192584871E+03   -0.70386E-05   -0.21986E-04  4544   0.126E-01    0.163E-02
DAV:   9    -0.128192580411E+03    0.44595E-05   -0.36849E-05  3912   0.505E-02
  22 F= -.12819258E+03 E0= -.12815379E+03  d E =-.105594E+00
quench:  g(F)=  0.000E+00 g(S)=  0.000E+00 dE (1.order)= 0.000E+00
 bond charge predicted
       N       E                     dE             d eps       ncg     rms          rms(c)
DAV:   1    -0.128206542240E+03   -0.13957E-01   -0.21511E+01  4464   0.100E+01    0.296E-01
DAV:   2    -0.128215047734E+03   -0.85055E-02   -0.10637E-01  4592   0.159E+00    0.271E-01
DAV:   3    -0.128214809477E+03    0.23826E-03   -0.11949E-02  4736   0.131E+00    0.167E-01
DAV:   4    -0.128214186103E+03    0.62337E-03   -0.16062E-03  6112   0.754E-01    0.705E-02
DAV:   5    -0.128214696161E+03   -0.51006E-03   -0.21409E-03  5048   0.127E+00    0.108E-01
DAV:   6    -0.128213960828E+03    0.73533E-03   -0.98038E-04  5160   0.848E-01    0.159E-02
DAV:   7    -0.128213997074E+03   -0.36246E-04   -0.43498E-04  5896   0.999E-02    0.162E-02
DAV:   8    -0.128213999019E+03   -0.19451E-05   -0.88556E-05  4592   0.686E-02
  23 F= -.12821400E+03 E0= -.12817434E+03  d E =-.214186E-01
quench:  g(F)=  0.000E+00 g(S)=  0.000E+00 dE (1.order)= 0.000E+00
 bond charge predicted
       N       E                     dE             d eps       ncg     rms          rms(c)
DAV:   1    -0.128214653503E+03   -0.65643E-03   -0.15530E+00  4480   0.266E+00    0.731E-02
DAV:   2    -0.128215064713E+03   -0.41121E-03   -0.54989E-03  4688   0.314E-01    0.575E-02
DAV:   3    -0.128215037618E+03    0.27095E-04   -0.52059E-04  4824   0.282E-01    0.447E-02
DAV:   4    -0.128214980756E+03    0.56862E-04   -0.12280E-04  5448   0.188E-01    0.121E-02
DAV:   5    -0.128214988721E+03   -0.79657E-05   -0.37790E-05  3088   0.143E-01
  24 F= -.12821499E+03 E0= -.12817523E+03  d E =-.989702E-03
quench:  g(F)=  0.000E+00 g(S)=  0.000E+00 dE (1.order)= 0.000E+00
 bond charge predicted
       N       E                     dE             d eps       ncg     rms          rms(c)
DAV:   1    -0.128213005523E+03    0.19752E-02   -0.16242E+01  4464   0.859E+00    0.230E-01
DAV:   2    -0.128216180489E+03   -0.31750E-02   -0.46991E-02  4680   0.985E-01    0.194E-01
DAV:   3    -0.128215871951E+03    0.30854E-03   -0.48670E-03  4840   0.111E+00    0.147E-01
DAV:   4    -0.128215897978E+03   -0.26027E-04   -0.25981E-03  7104   0.134E+00    0.965E-02
DAV:   5    -0.128215105098E+03    0.79288E-03   -0.20839E-03  8160   0.110E+00    0.421E-02
DAV:   6    -0.128215068526E+03    0.36572E-04   -0.55334E-04  6592   0.312E-01    0.201E-02
DAV:   7    -0.128215074841E+03   -0.63151E-05   -0.18937E-04  4760   0.910E-02    0.116E-02
DAV:   8    -0.128215075547E+03   -0.70539E-06   -0.40325E-05  4280   0.402E-02
  25 F= -.12821508E+03 E0= -.12817531E+03  d E =-.868251E-04
quench:  g(F)=  0.000E+00 g(S)=  0.000E+00 dE (1.order)= 0.000E+00
 bond charge predicted
       N       E                     dE             d eps       ncg     rms          rms(c)
DAV:   1    -0.128014521502E+03    0.20055E+00   -0.17539E+02  4464   0.290E+01    0.937E-01
DAV:   2    -0.128098886034E+03   -0.84365E-01   -0.10185E+00  4944   0.584E+00    0.893E-01
DAV:   3    -0.128097115855E+03    0.17702E-02   -0.15850E-01  4840   0.557E+00    0.518E-01
DAV:   4    -0.128102526777E+03   -0.54109E-02   -0.37368E-02  4984   0.494E+00    0.466E-01
DAV:   5    -0.128090069919E+03    0.12457E-01   -0.22842E-02  5064   0.398E+00    0.171E-01
DAV:   6    -0.128090461355E+03   -0.39144E-03   -0.13270E-02  4960   0.864E-01    0.738E-02
DAV:   7    -0.128090539536E+03   -0.78181E-04   -0.29814E-03  4776   0.395E-01    0.435E-02
DAV:   8    -0.128090572448E+03   -0.32912E-04   -0.10539E-03  4672   0.238E-01    0.347E-02
DAV:   9    -0.128090552203E+03    0.20245E-04   -0.20470E-04  4560   0.124E-01    0.191E-02
DAV:  10    -0.128090542771E+03    0.94317E-05   -0.29670E-05  3440   0.106E-01
  26 F= -.12809054E+03 E0= -.12805264E+03  d E =0.124533E+00
quench:  g(F)=  0.000E+00 g(S)=  0.000E+00 dE (1.order)= 0.000E+00
 bond charge predicted
       N       E                     dE             d eps       ncg     rms          rms(c)
DAV:   1    -0.128136047905E+03   -0.45496E-01   -0.21715E+02  4464   0.326E+01    0.990E-01
DAV:   2    -0.128228476096E+03   -0.92428E-01   -0.11680E+00  4776   0.660E+00    0.107E+00
DAV:   3    -0.128220239456E+03    0.82366E-02   -0.15116E-01  4784   0.535E+00    0.527E-01
DAV:   4    -0.128231604183E+03   -0.11365E-01   -0.45227E-02  6200   0.537E+00    0.544E-01
DAV:   5    -0.128210387624E+03    0.21217E-01   -0.35072E-02  5296   0.495E+00    0.189E-01
DAV:   6    -0.128211323899E+03   -0.93628E-03   -0.19254E-02  5264   0.105E+00    0.139E-01
DAV:   7    -0.128211183771E+03    0.14013E-03   -0.35012E-03  4752   0.557E-01    0.660E-02
DAV:   8    -0.128211180673E+03    0.30981E-05   -0.10120E-03  4648   0.206E-01    0.446E-02
DAV:   9    -0.128211142725E+03    0.37948E-04   -0.32908E-04  4560   0.113E-01    0.150E-02
DAV:  10    -0.128211141486E+03    0.12386E-05   -0.44763E-05  4272   0.668E-02
  27 F= -.12821114E+03 E0= -.12817110E+03  d E =-.120599E+00
quench:  g(F)=  0.000E+00 g(S)=  0.000E+00 dE (1.order)= 0.000E+00
 bond charge predicted
       N       E                     dE             d eps       ncg     rms          rms(c)
DAV:   1    -0.128214466246E+03   -0.33235E-02   -0.14282E+00  4552   0.261E+00    0.782E-02
DAV:   2    -0.128214972663E+03   -0.50642E-03   -0.62818E-03  4536   0.415E-01    0.687E-02
DAV:   3    -0.128214983287E+03   -0.10624E-04   -0.94887E-04  4704   0.381E-01    0.499E-02
DAV:   4    -0.128214988168E+03   -0.48812E-05   -0.21709E-04  4888   0.381E-01    0.370E-02
DAV:   5    -0.128214920608E+03    0.67560E-04   -0.13936E-04  4328   0.330E-01    0.126E-02
DAV:   6    -0.128214916686E+03    0.39228E-05   -0.32058E-05  3144   0.831E-02
  28 F= -.12821492E+03 E0= -.12817515E+03  d E =-.377520E-02
quench:  g(F)=  0.000E+00 g(S)=  0.000E+00 dE (1.order)= 0.000E+00
 bond charge predicted
       N       E                     dE             d eps       ncg     rms          rms(c)
DAV:   1    -0.128215355423E+03   -0.43481E-03   -0.39156E+00  4496   0.424E+00    0.118E-01
DAV:   2    -0.128216719931E+03   -0.13645E-02   -0.16522E-02  4520   0.590E-01    0.995E-02
DAV:   3    -0.128216721062E+03   -0.11311E-05   -0.18376E-03  4744   0.580E-01    0.768E-02
DAV:   4    -0.128216695352E+03    0.25709E-04   -0.57486E-04  5168   0.627E-01    0.525E-02
DAV:   5    -0.128216567354E+03    0.12800E-03   -0.42816E-04  6472   0.559E-01    0.220E-02
DAV:   6    -0.128216542437E+03    0.24917E-04   -0.15894E-04  6416   0.195E-01    0.616E-03
DAV:   7    -0.128216546701E+03   -0.42643E-05   -0.60623E-05  4568   0.419E-02
  29 F= -.12821655E+03 E0= -.12817702E+03  d E =-.163002E-02
quench:  g(F)=  0.000E+00 g(S)=  0.000E+00 dE (1.order)= 0.000E+00
 bond charge predicted
       N       E                     dE             d eps       ncg     rms          rms(c)
DAV:   1    -0.128214248299E+03    0.22941E-02   -0.37940E+00  4464   0.397E+00    0.102E-01
DAV:   2    -0.128215697217E+03   -0.14489E-02   -0.16839E-02  4576   0.489E-01    0.854E-02
DAV:   3    -0.128215666924E+03    0.30294E-04   -0.12478E-03  4720   0.457E-01    0.660E-02
DAV:   4    -0.128215623813E+03    0.43110E-04   -0.38096E-04  5248   0.485E-01    0.474E-02
DAV:   5    -0.128215575707E+03    0.48106E-04   -0.33386E-04  5992   0.485E-01    0.328E-02
DAV:   6    -0.128215522791E+03    0.52916E-04   -0.21990E-04  6592   0.240E-01    0.848E-03
DAV:   7    -0.128215526254E+03   -0.34635E-05   -0.62326E-05  4664   0.514E-02
  30 F= -.12821553E+03 E0= -.12817611E+03  d E =0.102045E-02
quench:  g(F)=  0.000E+00 g(S)=  0.000E+00 dE (1.order)= 0.000E+00
 bond charge predicted
       N       E                     dE             d eps       ncg     rms          rms(c)
DAV:   1    -0.128202227953E+03    0.13295E-01   -0.23268E+01  4464   0.913E+00    0.223E-01
DAV:   2    -0.128213053895E+03   -0.10826E-01   -0.12014E-01  5120   0.113E+00    0.204E-01
DAV:   3    -0.128212739256E+03    0.31464E-03   -0.62643E-03  4752   0.101E+00    0.147E-01
DAV:   4    -0.128212506980E+03    0.23228E-03   -0.16000E-03  5216   0.943E-01    0.121E-01
DAV:   5    -0.128212219637E+03    0.28734E-03   -0.15420E-03  6880   0.948E-01    0.874E-02
DAV:   6    -0.128211897078E+03    0.32256E-03   -0.14995E-03  7096   0.520E-01    0.226E-02
DAV:   7    -0.128211919693E+03   -0.22615E-04   -0.39990E-04  4688   0.112E-01    0.171E-02
DAV:   8    -0.128211917861E+03    0.18314E-05   -0.60885E-05  4432   0.643E-02
  31 F= -.12821192E+03 E0= -.12817262E+03  d E =0.360839E-02
quench:  g(F)=  0.000E+00 g(S)=  0.000E+00 dE (1.order)= 0.000E+00
 bond charge predicted
       N       E                     dE             d eps       ncg     rms          rms(c)
DAV:   1    -0.128084145279E+03    0.12777E+00   -0.13910E+02  4464   0.261E+01    0.803E-01
DAV:   2    -0.128143366497E+03   -0.59221E-01   -0.72969E-01  4560   0.517E+00    0.853E-01
DAV:   3    -0.128138699265E+03    0.46672E-02   -0.10824E-01  4776   0.412E+00    0.425E-01
DAV:   4    -0.128141310629E+03   -0.26114E-02   -0.18927E-02  7912   0.282E+00    0.273E-01
DAV:   5    -0.128134725313E+03    0.65853E-02   -0.17769E-02  5024   0.356E+00    0.225E-01
DAV:   6    -0.128133841003E+03    0.88431E-03   -0.66242E-03  5008   0.119E+00    0.843E-02
DAV:   7    -0.128133902352E+03   -0.61348E-04   -0.26544E-03  5448   0.374E-01    0.327E-02
DAV:   8    -0.128133966633E+03   -0.64281E-04   -0.96551E-04  4688   0.188E-01    0.314E-02
DAV:   9    -0.128133956424E+03    0.10208E-04   -0.19732E-04  4632   0.112E-01    0.161E-02
DAV:  10    -0.128133950479E+03    0.59451E-05   -0.21125E-05  2952   0.725E-02
  32 F= -.12813395E+03 E0= -.12809227E+03  d E =0.779674E-01
quench:  g(F)=  0.000E+00 g(S)=  0.000E+00 dE (1.order)= 0.000E+00
 bond charge predicted
       N       E                     dE             d eps       ncg     rms          rms(c)
DAV:   1    -0.128184120326E+03   -0.50164E-01   -0.29750E+01  4464   0.117E+01    0.345E-01
DAV:   2    -0.128197455585E+03   -0.13335E-01   -0.15864E-01  4632   0.205E+00    0.328E-01
DAV:   3    -0.128197426778E+03    0.28806E-04   -0.20277E-02  4768   0.182E+00    0.203E-01
DAV:   4    -0.128197817505E+03   -0.39073E-03   -0.46249E-03  4880   0.173E+00    0.166E-01
DAV:   5    -0.128196474379E+03    0.13431E-02   -0.34508E-03  5152   0.163E+00    0.779E-02
DAV:   6    -0.128196282290E+03    0.19209E-03   -0.15220E-03  6944   0.523E-01    0.186E-02
DAV:   7    -0.128196330576E+03   -0.48286E-04   -0.62949E-04  4624   0.129E-01    0.163E-02
DAV:   8    -0.128196330097E+03    0.47864E-06   -0.81007E-05  4640   0.749E-02
  33 F= -.12819633E+03 E0= -.12815574E+03  d E =-.623796E-01
quench:  g(F)=  0.000E+00 g(S)=  0.000E+00 dE (1.order)= 0.000E+00
 bond charge predicted
       N       E                     dE             d eps       ncg     rms          rms(c)
DAV:   1    -0.128208405577E+03   -0.12075E-01   -0.12014E+01  4464   0.741E+00    0.212E-01
DAV:   2    -0.128213287574E+03   -0.48820E-02   -0.57782E-02  4600   0.116E+00    0.190E-01
DAV:   3    -0.128213400916E+03   -0.11334E-03   -0.73042E-03  4744   0.117E+00    0.139E-01
DAV:   4    -0.128213428897E+03   -0.27981E-04   -0.20692E-03  4824   0.118E+00    0.104E-01
DAV:   5    -0.128212898135E+03    0.53076E-03   -0.12498E-03  5864   0.983E-01    0.393E-02
DAV:   6    -0.128212845939E+03    0.52196E-04   -0.56201E-04  7328   0.313E-01    0.116E-02
DAV:   7    -0.128212858444E+03   -0.12505E-04   -0.20629E-04  4712   0.884E-02    0.114E-02
DAV:   8    -0.128212858435E+03    0.88767E-08   -0.33376E-05  3688   0.391E-02
  34 F= -.12821286E+03 E0= -.12817295E+03  d E =-.165283E-01
quench:  g(F)=  0.000E+00 g(S)=  0.000E+00 dE (1.order)= 0.000E+00
 bond charge predicted
       N       E                     dE             d eps       ncg     rms          rms(c)
DAV:   1    -0.128214765441E+03   -0.19070E-02   -0.33783E+00  4464   0.384E+00    0.107E-01
DAV:   2    -0.128216291505E+03   -0.15261E-02   -0.17653E-02  4576   0.559E-01    0.900E-02
DAV:   3    -0.128216311527E+03   -0.20022E-04   -0.16514E-03  4768   0.507E-01    0.692E-02
DAV:   4    -0.128216280245E+03    0.31282E-04   -0.42987E-04  4872   0.503E-01    0.479E-02
DAV:   5    -0.128216235939E+03    0.44306E-04   -0.31933E-04  5000   0.507E-01    0.321E-02
DAV:   6    -0.128216182908E+03    0.53031E-04   -0.15360E-04  5776   0.248E-01    0.733E-03
DAV:   7    -0.128216186950E+03   -0.40413E-05   -0.73716E-05  5016   0.590E-02
  35 F= -.12821619E+03 E0= -.12817657E+03  d E =-.332851E-02
quench:  g(F)=  0.000E+00 g(S)=  0.000E+00 dE (1.order)= 0.000E+00
 bond charge predicted
       N       E                     dE             d eps       ncg     rms          rms(c)
DAV:   1    -0.128216643912E+03   -0.46100E-03   -0.42134E-01  4528   0.126E+00    0.368E-02
DAV:   2    -0.128216865911E+03   -0.22200E-03   -0.26231E-03  4608   0.213E-01    0.313E-02
DAV:   3    -0.128216877179E+03   -0.11269E-04   -0.30648E-04  4832   0.202E-01    0.228E-02
DAV:   4    -0.128216874130E+03    0.30492E-05   -0.64999E-05  4512   0.168E-01
  36 F= -.12821687E+03 E0= -.12817727E+03  d E =-.687181E-03
quench:  g(F)=  0.000E+00 g(S)=  0.000E+00 dE (1.order)= 0.000E+00
 bond charge predicted
       N       E                     dE             d eps       ncg     rms          rms(c)
DAV:   1    -0.128216926190E+03   -0.49010E-04   -0.54966E-01  4464   0.147E+00    0.463E-02
DAV:   2    -0.128217192896E+03   -0.26671E-03   -0.30358E-03  5224   0.312E-01    0.410E-02
DAV:   3    -0.128217222102E+03   -0.29206E-04   -0.63501E-04  4648   0.425E-01    0.385E-02
DAV:   4    -0.128217179712E+03    0.42389E-04   -0.12598E-04  4768   0.232E-01    0.188E-02
DAV:   5    -0.128217177624E+03    0.20881E-05   -0.74517E-05  4704   0.964E-02
  37 F= -.12821718E+03 E0= -.12817759E+03  d E =-.303494E-03
quench:  g(F)=  0.000E+00 g(S)=  0.000E+00 dE (1.order)= 0.000E+00
 bond charge predicted
       N       E                     dE             d eps       ncg     rms          rms(c)
DAV:   1    -0.128215883732E+03    0.12960E-02   -0.18183E+00  4464   0.258E+00    0.699E-02
DAV:   2    -0.128216836190E+03   -0.95246E-03   -0.11045E-02  4624   0.374E-01    0.575E-02
DAV:   3    -0.128216847465E+03   -0.11275E-04   -0.86081E-04  4704   0.261E-01    0.396E-02
DAV:   4    -0.128216826694E+03    0.20772E-04   -0.12687E-04  4672   0.191E-01    0.295E-02
DAV:   5    -0.128216840249E+03   -0.13555E-04   -0.10817E-04  5088   0.273E-01    0.297E-02
DAV:   6    -0.128216801848E+03    0.38401E-04   -0.89682E-05  4120   0.240E-01    0.684E-03
DAV:   7    -0.128216801839E+03    0.90004E-08   -0.34431E-05  3736   0.646E-02
  38 F= -.12821680E+03 E0= -.12817729E+03  d E =0.375785E-03
quench:  g(F)=  0.000E+00 g(S)=  0.000E+00 dE (1.order)= 0.000E+00
 bond charge predicted
       N       E                     dE             d eps       ncg     rms          rms(c)
DAV:   1    -0.128085941406E+03    0.13086E+00   -0.15623E+02  4464   0.247E+01    0.723E-01
DAV:   2    -0.128182198622E+03   -0.96257E-01   -0.10990E+00  5008   0.558E+00    0.835E-01
DAV:   3    -0.128175125781E+03    0.70728E-02   -0.94817E-02  4736   0.378E+00    0.377E-01
DAV:   4    -0.128173893105E+03    0.12327E-02   -0.13538E-02  4888   0.183E+00    0.326E-01
DAV:   5    -0.128173803475E+03    0.89630E-04   -0.14483E-02  4856   0.298E+00    0.283E-01
DAV:   6    -0.128170415247E+03    0.33882E-02   -0.10301E-02  6976   0.157E+00    0.686E-02
DAV:   7    -0.128170653508E+03   -0.23826E-03   -0.37127E-03  4888   0.485E-01    0.621E-02
DAV:   8    -0.128170653770E+03   -0.26225E-06   -0.12594E-03  4744   0.334E-01    0.312E-02
DAV:   9    -0.128170658366E+03   -0.45958E-05   -0.37385E-04  4544   0.104E-01    0.135E-02
DAV:  10    -0.128170658548E+03   -0.18183E-06   -0.52719E-05  4600   0.655E-02
  39 F= -.12817066E+03 E0= -.12813095E+03  d E =0.461433E-01
quench:  g(F)=  0.000E+00 g(S)=  0.000E+00 dE (1.order)= 0.000E+00
 bond charge predicted
       N       E                     dE             d eps       ncg     rms          rms(c)
DAV:   1    -0.128195750275E+03   -0.25092E-01   -0.26989E+01  4464   0.103E+01    0.316E-01
DAV:   2    -0.128209776120E+03   -0.14026E-01   -0.17165E-01  4608   0.158E+00    0.225E-01
DAV:   3    -0.128210615006E+03   -0.83889E-03   -0.16233E-02  4672   0.154E+00    0.182E-01
DAV:   4    -0.128210356285E+03    0.25872E-03   -0.47227E-03  4784   0.155E+00    0.135E-01
DAV:   5    -0.128209859488E+03    0.49680E-03   -0.15422E-03  5304   0.103E+00    0.887E-02
DAV:   6    -0.128209669288E+03    0.19020E-03   -0.12460E-03  6720   0.459E-01    0.209E-02
DAV:   7    -0.128209697137E+03   -0.27849E-04   -0.45605E-04  4792   0.175E-01    0.175E-02
DAV:   8    -0.128209697050E+03    0.87093E-07   -0.92256E-05  4616   0.825E-02
  40 F= -.12820970E+03 E0= -.12816977E+03  d E =-.390385E-01
quench:  g(F)=  0.000E+00 g(S)=  0.000E+00 dE (1.order)= 0.000E+00
 bond charge predicted
       N       E                     dE             d eps       ncg     rms          rms(c)
DAV:   1    -0.128209398252E+03    0.29888E-03   -0.11979E+01  4496   0.677E+00    0.205E-01
DAV:   2    -0.128215751585E+03   -0.63533E-02   -0.76521E-02  4512   0.109E+00    0.162E-01
DAV:   3    -0.128216041475E+03   -0.28989E-03   -0.82935E-03  4712   0.955E-01    0.117E-01
DAV:   4    -0.128215958353E+03    0.83122E-04   -0.17003E-03  4720   0.836E-01    0.879E-02
DAV:   5    -0.128215859514E+03    0.98839E-04   -0.84349E-04  4944   0.762E-01    0.694E-02
DAV:   6    -0.128215703608E+03    0.15591E-03   -0.60462E-04  7752   0.426E-01    0.179E-02
DAV:   7    -0.128215706548E+03   -0.29396E-05   -0.22061E-04  5896   0.145E-01    0.113E-02
DAV:   8    -0.128215708594E+03   -0.20464E-05   -0.89837E-05  4560   0.805E-02
  41 F= -.12821571E+03 E0= -.12817586E+03  d E =-.601154E-02
quench:  g(F)=  0.000E+00 g(S)=  0.000E+00 dE (1.order)= 0.000E+00
 bond charge predicted
       N       E                     dE             d eps       ncg     rms          rms(c)
DAV:   1    -0.128216397162E+03   -0.69061E-03   -0.68970E-01  4464   0.170E+00    0.448E-02
DAV:   2    -0.128216696175E+03   -0.29901E-03   -0.34446E-03  4640   0.221E-01    0.363E-02
DAV:   3    -0.128216690639E+03    0.55353E-05   -0.21866E-04  4840   0.166E-01    0.264E-02
DAV:   4    -0.128216680689E+03    0.99505E-05   -0.54416E-05  4648   0.163E-01
  42 F= -.12821668E+03 E0= -.12817698E+03  d E =-.972095E-03
quench:  g(F)=  0.000E+00 g(S)=  0.000E+00 dE (1.order)= 0.000E+00
 bond charge predicted
       N       E                     dE             d eps       ncg     rms          rms(c)
DAV:   1    -0.128216851173E+03   -0.16053E-03   -0.74715E-01  4464   0.185E+00    0.562E-02
DAV:   2    -0.128217212417E+03   -0.36124E-03   -0.27673E-03  5904   0.648E-01    0.705E-02
DAV:   3    -0.128217063301E+03    0.14912E-03   -0.11161E-03  4760   0.624E-01    0.370E-02
DAV:   4    -0.128217063340E+03   -0.38963E-07   -0.46090E-04  4784   0.144E-01    0.162E-02
DAV:   5    -0.128217057307E+03    0.60329E-05   -0.40628E-05  3840   0.617E-02
  43 F= -.12821706E+03 E0= -.12817748E+03  d E =-.376618E-03
quench:  g(F)=  0.000E+00 g(S)=  0.000E+00 dE (1.order)= 0.000E+00
 bond charge predicted
       N       E                     dE             d eps       ncg     rms          rms(c)
DAV:   1    -0.128217119819E+03   -0.56479E-04   -0.42594E-02  4560   0.447E-01    0.131E-02
DAV:   2    -0.128217136270E+03   -0.16451E-04   -0.20071E-04  4928   0.895E-02    0.131E-02
DAV:   3    -0.128217136374E+03   -0.10397E-06   -0.36759E-05  4040   0.738E-02
  44 F= -.12821714E+03 E0= -.12817758E+03  d E =-.790667E-04
quench:  g(F)=  0.000E+00 g(S)=  0.000E+00 dE (1.order)= 0.000E+00
 bond charge predicted
       N       E                     dE             d eps       ncg     rms          rms(c)
DAV:   1    -0.128210902560E+03    0.62337E-02   -0.13452E+01  4464   0.745E+00    0.199E-01
DAV:   2    -0.128216074010E+03   -0.51715E-02   -0.61515E-02  4776   0.963E-01    0.171E-01
DAV:   3    -0.128215969284E+03    0.10473E-03   -0.55819E-03  4800   0.886E-01    0.131E-01
DAV:   4    -0.128215778102E+03    0.19118E-03   -0.15341E-03  4904   0.887E-01    0.966E-02
DAV:   5    -0.128215629519E+03    0.14858E-03   -0.12521E-03  6064   0.931E-01    0.632E-02
DAV:   6    -0.128215427927E+03    0.20159E-03   -0.92925E-04  7560   0.534E-01    0.193E-02
DAV:   7    -0.128215428587E+03   -0.65981E-06   -0.26793E-04  5872   0.139E-01    0.114E-02
DAV:   8    -0.128215430643E+03   -0.20567E-05   -0.76453E-05  4640   0.452E-02
  45 F= -.12821543E+03 E0= -.12817589E+03  d E =0.170573E-02
quench:  g(F)=  0.000E+00 g(S)=  0.000E+00 dE (1.order)= 0.000E+00
 bond charge predicted
       N       E                     dE             d eps       ncg     rms          rms(c)
DAV:   1    -0.128215713242E+03   -0.28466E-03   -0.42352E+00  4464   0.441E+00    0.120E-01
DAV:   2    -0.128216617039E+03   -0.90380E-03   -0.12863E-02  4800   0.553E-01    0.102E-01
DAV:   3    -0.128216655860E+03   -0.38821E-04   -0.21812E-03  4760   0.759E-01    0.882E-02
DAV:   4    -0.128216509075E+03    0.14678E-03   -0.77927E-04  5152   0.716E-01    0.555E-02
DAV:   5    -0.128216370084E+03    0.13899E-03   -0.52864E-04  8152   0.477E-01    0.156E-02
DAV:   6    -0.128216368336E+03    0.17485E-05   -0.19156E-04  6208   0.152E-01    0.737E-03
DAV:   7    -0.128216373354E+03   -0.50186E-05   -0.73181E-05  4600   0.498E-02
  46 F= -.12821637E+03 E0= -.12817713E+03  d E =-.942711E-03
quench:  g(F)=  0.000E+00 g(S)=  0.000E+00 dE (1.order)= 0.000E+00
 bond charge predicted
       N       E                     dE             d eps       ncg     rms          rms(c)
DAV:   1    -0.128216741428E+03   -0.37309E-03   -0.84515E-01  4464   0.185E+00    0.506E-02
DAV:   2    -0.128217138331E+03   -0.39690E-03   -0.46559E-03  4560   0.253E-01    0.401E-02
DAV:   3    -0.128217140187E+03   -0.18570E-05   -0.34436E-04  4728   0.217E-01    0.298E-02
DAV:   4    -0.128217136148E+03    0.40392E-05   -0.10389E-04  4864   0.237E-01    0.245E-02
DAV:   5    -0.128217122432E+03    0.13716E-04   -0.61858E-05  3200   0.218E-01    0.168E-02
DAV:   6    -0.128217110506E+03    0.11926E-04   -0.33283E-05  3480   0.107E-01    0.395E-03
DAV:   7    -0.128217111869E+03   -0.13633E-05   -0.21939E-05  2912   0.338E-02
  47 F= -.12821711E+03 E0= -.12817772E+03  d E =-.738515E-03
quench:  g(F)=  0.000E+00 g(S)=  0.000E+00 dE (1.order)= 0.000E+00
 bond charge predicted
       N       E                     dE             d eps       ncg     rms          rms(c)
DAV:   1    -0.128209919710E+03    0.71908E-02   -0.24824E+01  4488   0.107E+01    0.288E-01
DAV:   2    -0.128215512198E+03   -0.55925E-02   -0.82005E-02  4584   0.122E+00    0.235E-01
DAV:   3    -0.128215196428E+03    0.31577E-03   -0.83443E-03  4656   0.145E+00    0.182E-01
DAV:   4    -0.128214942798E+03    0.25363E-03   -0.37236E-03  5376   0.164E+00    0.129E-01
DAV:   5    -0.128214026540E+03    0.91626E-03   -0.29627E-03  7808   0.129E+00    0.605E-02
DAV:   6    -0.128213909395E+03    0.11714E-03   -0.12222E-03  6944   0.448E-01    0.205E-02
DAV:   7    -0.128213929756E+03   -0.20362E-04   -0.36568E-04  4768   0.101E-01    0.166E-02
DAV:   8    -0.128213929936E+03   -0.17959E-06   -0.74006E-05  4600   0.657E-02
  48 F= -.12821393E+03 E0= -.12817407E+03  d E =0.318193E-02
quench:  g(F)=  0.000E+00 g(S)=  0.000E+00 dE (1.order)= 0.000E+00
 bond charge predicted
       N       E                     dE             d eps       ncg     rms          rms(c)
DAV:   1    -0.127651586857E+03    0.56234E+00   -0.70801E+02  4464   0.545E+01    0.158E+00
DAV:   2    -0.128169911005E+03   -0.51832E+00   -0.58294E+00  5528   0.115E+01    0.170E+00
DAV:   3    -0.128143952958E+03    0.25958E-01   -0.41126E-01  4856   0.987E+00    0.862E-01
DAV:   4    -0.128134363158E+03    0.95898E-02   -0.83703E-02  5272   0.623E+00    0.782E-01
DAV:   5    -0.128118241433E+03    0.16122E-01   -0.59774E-02  4976   0.485E+00    0.489E-01
DAV:   6    -0.128114775343E+03    0.34661E-02   -0.70653E-02  5584   0.227E+00    0.211E-01
DAV:   7    -0.128114568782E+03    0.20656E-03   -0.14570E-02  4688   0.135E+00    0.105E-01
DAV:   8    -0.128114810622E+03   -0.24184E-03   -0.73875E-03  4560   0.735E-01    0.876E-02
DAV:   9    -0.128114775971E+03    0.34650E-04   -0.17248E-03  4664   0.404E-01    0.487E-02
DAV:  10    -0.128114766400E+03    0.95708E-05   -0.47773E-04  4656   0.284E-01    0.263E-02
DAV:  11    -0.128114773814E+03   -0.74134E-05   -0.13997E-04  4776   0.754E-02    0.185E-02
DAV:  12    -0.128114775875E+03   -0.20616E-05   -0.47796E-05  4416   0.931E-02
  49 F= -.12811478E+03 E0= -.12807714E+03  d E =0.991541E-01
quench:  g(F)=  0.000E+00 g(S)=  0.000E+00 dE (1.order)= 0.000E+00
 bond charge predicted
       N       E                     dE             d eps       ncg     rms          rms(c)
DAV:   1    -0.128025037971E+03    0.89736E-01   -0.25385E+02  4464   0.286E+01    0.899E-01
DAV:   2    -0.128214251556E+03   -0.18921E+00   -0.21503E+00  4760   0.496E+00    0.766E-01
DAV:   3    -0.128212860960E+03    0.13906E-02   -0.13159E-01  4824   0.368E+00    0.445E-01
DAV:   4    -0.128211878739E+03    0.98222E-03   -0.23008E-02  4864   0.282E+00    0.393E-01
DAV:   5    -0.128209612046E+03    0.22667E-02   -0.10725E-02  4936   0.251E+00    0.300E-01
DAV:   6    -0.128206758923E+03    0.28531E-02   -0.11758E-02  6720   0.142E+00    0.689E-02
DAV:   7    -0.128207019875E+03   -0.26095E-03   -0.43777E-03  4936   0.539E-01    0.598E-02
DAV:   8    -0.128206971402E+03    0.48474E-04   -0.99130E-04  4656   0.355E-01    0.392E-02
DAV:   9    -0.128206951925E+03    0.19477E-04   -0.25282E-04  4832   0.154E-01    0.209E-02
DAV:  10    -0.128206948866E+03    0.30586E-05   -0.14813E-04  4856   0.107E-01    0.114E-02
DAV:  11    -0.128206950938E+03   -0.20720E-05   -0.40067E-05  4400   0.474E-02
  50 F= -.12820695E+03 E0= -.12816716E+03  d E =-.921751E-01
quench:  g(F)=  0.000E+00 g(S)=  0.000E+00 dE (1.order)= 0.000E+00
 bond charge predicted
       N       E                     dE             d eps       ncg     rms          rms(c)
DAV:   1    -0.128206066216E+03    0.88265E-03   -0.31617E+00  4464   0.359E+00    0.909E-02
DAV:   2    -0.128207150016E+03   -0.10838E-02   -0.13274E-02  4664   0.350E-01    0.694E-02
DAV:   3    -0.128207072283E+03    0.77733E-04   -0.56755E-04  4768   0.242E-01    0.506E-02
DAV:   4    -0.128207046244E+03    0.26039E-04   -0.23895E-04  4888   0.356E-01    0.415E-02
DAV:   5    -0.128207044497E+03    0.17474E-05   -0.29459E-04  5520   0.456E-01    0.361E-02
DAV:   6    -0.128206976964E+03    0.67533E-04   -0.17625E-04  6512   0.278E-01    0.762E-03
DAV:   7    -0.128206980434E+03   -0.34699E-05   -0.59418E-05  4464   0.459E-02
  51 F= -.12820698E+03 E0= -.12816717E+03  d E =-.294957E-04
quench:  g(F)=  0.000E+00 g(S)=  0.000E+00 dE (1.order)= 0.000E+00
 bond charge predicted
       N       E                     dE             d eps       ncg     rms          rms(c)
DAV:   1    -0.128202080661E+03    0.48963E-02   -0.10714E+01  4464   0.662E+00    0.181E-01
DAV:   2    -0.128206233545E+03   -0.41529E-02   -0.52080E-02  4608   0.799E-01    0.140E-01
DAV:   3    -0.128206175991E+03    0.57553E-04   -0.41897E-03  4792   0.656E-01    0.102E-01
DAV:   4    -0.128206053965E+03    0.12203E-03   -0.98668E-04  4904   0.661E-01    0.775E-02
DAV:   5    -0.128206079469E+03   -0.25504E-04   -0.91908E-04  5008   0.823E-01    0.732E-02
DAV:   6    -0.128205828460E+03    0.25101E-03   -0.73701E-04  8240   0.531E-01    0.150E-02
DAV:   7    -0.128205839124E+03   -0.10664E-04   -0.20276E-04  5856   0.964E-02    0.968E-03
DAV:   8    -0.128205838623E+03    0.50112E-06   -0.43841E-05  4432   0.545E-02
  52 F= -.12820584E+03 E0= -.12816588E+03  d E =0.114181E-02
quench:  g(F)=  0.000E+00 g(S)=  0.000E+00 dE (1.order)= 0.000E+00
 bond charge predicted
       N       E                     dE             d eps       ncg     rms          rms(c)
DAV:   1    -0.128204345341E+03    0.14938E-02   -0.31821E+00  4528   0.365E+00    0.926E-02
DAV:   2    -0.128205506505E+03   -0.11612E-02   -0.13750E-02  4712   0.407E-01    0.743E-02
DAV:   3    -0.128205451271E+03    0.55234E-04   -0.78190E-04  4816   0.312E-01    0.558E-02
DAV:   4    -0.128205407680E+03    0.43591E-04   -0.23148E-04  5136   0.354E-01    0.390E-02
DAV:   5    -0.128205434358E+03   -0.26678E-04   -0.30438E-04  5616   0.477E-01    0.382E-02
DAV:   6    -0.128205347923E+03    0.86435E-04   -0.18697E-04  6416   0.303E-01    0.711E-03
DAV:   7    -0.128205353114E+03   -0.51914E-05   -0.68513E-05  4720   0.445E-02
  53 F= -.12820535E+03 E0= -.12816558E+03  d E =0.485508E-03
quench:  g(F)=  0.000E+00 g(S)=  0.000E+00 dE (1.order)= 0.000E+00
 bond charge predicted
       N       E                     dE             d eps       ncg     rms          rms(c)
DAV:   1    -0.128188787340E+03    0.16561E-01   -0.30376E+01  4464   0.105E+01    0.256E-01
DAV:   2    -0.128202799679E+03   -0.14012E-01   -0.15813E-01  4752   0.111E+00    0.214E-01
DAV:   3    -0.128202234200E+03    0.56548E-03   -0.56526E-03  4800   0.809E-01    0.156E-01
DAV:   4    -0.128202119579E+03    0.11462E-03   -0.17847E-03  5136   0.107E+00    0.138E-01
DAV:   5    -0.128201659927E+03    0.45965E-03   -0.21735E-03  7392   0.115E+00    0.885E-02
DAV:   6    -0.128201257843E+03    0.40208E-03   -0.15499E-03  7496   0.631E-01    0.198E-02
DAV:   7    -0.128201292882E+03   -0.35039E-04   -0.46738E-04  4592   0.103E-01    0.177E-02
DAV:   8    -0.128201286586E+03    0.62960E-05   -0.43291E-05  4344   0.519E-02
  54 F= -.12820129E+03 E0= -.12816146E+03  d E =0.406653E-02
quench:  g(F)=  0.000E+00 g(S)=  0.000E+00 dE (1.order)= 0.000E+00
 bond charge predicted
       N       E                     dE             d eps       ncg     rms          rms(c)
DAV:   1    -0.128137906013E+03    0.63387E-01   -0.10284E+02  4464   0.207E+01    0.576E-01
DAV:   2    -0.128182615447E+03   -0.44709E-01   -0.54307E-01  5760   0.350E+00    0.576E-01
DAV:   3    -0.128179881688E+03    0.27338E-02   -0.45452E-02  4816   0.304E+00    0.329E-01
DAV:   4    -0.128179668005E+03    0.21368E-03   -0.12301E-02  5000   0.262E+00    0.296E-01
DAV:   5    -0.128176488719E+03    0.31793E-02   -0.95721E-03  5424   0.246E+00    0.175E-01
DAV:   6    -0.128175760399E+03    0.72832E-03   -0.90734E-03  6496   0.932E-01    0.480E-02
DAV:   7    -0.128175845594E+03   -0.85195E-04   -0.20669E-03  4600   0.302E-01    0.394E-02
DAV:   8    -0.128175861418E+03   -0.15824E-04   -0.73060E-04  4624   0.199E-01    0.261E-02
DAV:   9    -0.128175854755E+03    0.66631E-05   -0.13667E-04  4704   0.106E-01    0.147E-02
DAV:  10    -0.128175854956E+03   -0.20018E-06   -0.29514E-05  3600   0.803E-02
  55 F= -.12817585E+03 E0= -.12813634E+03  d E =0.254316E-01
quench:  g(F)=  0.000E+00 g(S)=  0.000E+00 dE (1.order)= 0.000E+00
 bond charge predicted
       N       E                     dE             d eps       ncg     rms          rms(c)
DAV:   1    -0.128168456834E+03    0.73979E-02   -0.34974E+01  4464   0.116E+01    0.328E-01
DAV:   2    -0.128185162192E+03   -0.16705E-01   -0.20109E-01  4600   0.147E+00    0.246E-01
DAV:   3    -0.128185044150E+03    0.11804E-03   -0.13764E-02  4600   0.104E+00    0.171E-01
DAV:   4    -0.128184668317E+03    0.37583E-03   -0.26430E-03  4736   0.956E-01    0.134E-01
DAV:   5    -0.128184908001E+03   -0.23968E-03   -0.23704E-03  5256   0.132E+00    0.129E-01
DAV:   6    -0.128184088864E+03    0.81914E-03   -0.20386E-03  7920   0.102E+00    0.223E-02
DAV:   7    -0.128184116045E+03   -0.27181E-04   -0.61194E-04  6136   0.200E-01    0.175E-02
DAV:   8    -0.128184115166E+03    0.87814E-06   -0.16180E-04  4600   0.110E-01    0.131E-02
DAV:   9    -0.128184113965E+03    0.12011E-05   -0.29150E-05  3152   0.457E-02
  56 F= -.12818411E+03 E0= -.12814398E+03  d E =-.825901E-02
quench:  g(F)=  0.000E+00 g(S)=  0.000E+00 dE (1.order)= 0.000E+00
 bond charge predicted
       N       E                     dE             d eps       ncg     rms          rms(c)
DAV:   1    -0.128185870107E+03   -0.17549E-02   -0.67030E-01  4528   0.172E+00    0.471E-02
DAV:   2    -0.128186086477E+03   -0.21637E-03   -0.28169E-03  4712   0.213E-01    0.367E-02
DAV:   3    -0.128186089367E+03   -0.28898E-05   -0.29447E-04  4848   0.224E-01    0.304E-02
DAV:   4    -0.128186079834E+03    0.95328E-05   -0.92237E-05  4608   0.244E-01
  57 F= -.12818608E+03 E0= -.12814595E+03  d E =-.196587E-02
quench:  g(F)=  0.000E+00 g(S)=  0.000E+00 dE (1.order)= 0.000E+00
 bond charge predicted
       N       E                     dE             d eps       ncg     rms          rms(c)
DAV:   1    -0.128189120563E+03   -0.30312E-02   -0.37205E+00  4480   0.419E+00    0.120E-01
DAV:   2    -0.128189857342E+03   -0.73678E-03   -0.10766E-02  4640   0.617E-01    0.100E-01
DAV:   3    -0.128190025002E+03   -0.16766E-03   -0.26656E-03  4808   0.940E-01    0.953E-02
DAV:   4    -0.128189686778E+03    0.33822E-03   -0.64401E-04  5384   0.658E-01    0.349E-02
DAV:   5    -0.128189659839E+03    0.26939E-04   -0.42022E-04  7696   0.302E-01    0.193E-02
DAV:   6    -0.128189658652E+03    0.11872E-05   -0.18911E-04  4632   0.154E-01    0.101E-02
DAV:   7    -0.128189662738E+03   -0.40863E-05   -0.63947E-05  4504   0.416E-02
  58 F= -.12818966E+03 E0= -.12814969E+03  d E =-.358290E-02
quench:  g(F)=  0.000E+00 g(S)=  0.000E+00 dE (1.order)= 0.000E+00
 bond charge predicted
       N       E                     dE             d eps       ncg     rms          rms(c)
DAV:   1    -0.128189863130E+03   -0.20448E-03   -0.89981E-02  4536   0.622E-01    0.178E-02
DAV:   2    -0.128189899071E+03   -0.35941E-04   -0.43276E-04  4760   0.867E-02    0.143E-02
DAV:   3    -0.128189900583E+03   -0.15116E-05   -0.49152E-05  4576   0.901E-02
  59 F= -.12818990E+03 E0= -.12814997E+03  d E =-.237844E-03
quench:  g(F)=  0.000E+00 g(S)=  0.000E+00 dE (1.order)= 0.000E+00
 bond charge predicted
       N       E                     dE             d eps       ncg     rms          rms(c)
DAV:   1    -0.128189690661E+03    0.20841E-03   -0.80987E-02  4480   0.622E-01    0.208E-02
DAV:   2    -0.128189722062E+03   -0.31402E-04   -0.25845E-04  5576   0.221E-01    0.248E-02
DAV:   3    -0.128189705748E+03    0.16315E-04   -0.11535E-04  4640   0.213E-01    0.140E-02
DAV:   4    -0.128189703900E+03    0.18472E-05   -0.47440E-05  4376   0.820E-02
  60 F= -.12818970E+03 E0= -.12814979E+03  d E =0.196682E-03
quench:  g(F)=  0.000E+00 g(S)=  0.000E+00 dE (1.order)= 0.000E+00
 bond charge predicted
       N       E                     dE             d eps       ncg     rms          rms(c)
DAV:   1    -0.128188588711E+03    0.11170E-02   -0.69380E-01  4464   0.180E+00    0.483E-02
DAV:   2    -0.128188699034E+03   -0.11032E-03   -0.18276E-03  4656   0.169E-01    0.359E-02
DAV:   3    -0.128188668115E+03    0.30919E-04   -0.14292E-04  4936   0.148E-01    0.261E-02
DAV:   4    -0.128188650740E+03    0.17375E-04   -0.68537E-05  4856   0.144E-01    0.758E-03
DAV:   5    -0.128188655422E+03   -0.46822E-05   -0.22339E-05  2736   0.118E-01
  61 F= -.12818866E+03 E0= -.12814871E+03  d E =0.104848E-02
quench:  g(F)=  0.000E+00 g(S)=  0.000E+00 dE (1.order)= 0.000E+00
 bond charge predicted
       N       E                     dE             d eps       ncg     rms          rms(c)
DAV:   1    -0.128183514356E+03    0.51364E-02   -0.94406E+00  4464   0.667E+00    0.178E-01
DAV:   2    -0.128184429046E+03   -0.91469E-03   -0.19218E-02  4656   0.590E-01    0.134E-01
DAV:   3    -0.128184224635E+03    0.20441E-03   -0.23369E-03  4736   0.929E-01    0.123E-01
DAV:   4    -0.128184069246E+03    0.15539E-03   -0.19111E-03  7632   0.114E+00    0.552E-02
DAV:   5    -0.128183740649E+03    0.32860E-03   -0.97069E-04  8344   0.655E-01    0.290E-02
DAV:   6    -0.128183722773E+03    0.17876E-04   -0.19019E-04  5704   0.163E-01    0.127E-02
DAV:   7    -0.128183725600E+03   -0.28265E-05   -0.72318E-05  4688   0.525E-02
  62 F= -.12818373E+03 E0= -.12814377E+03  d E =0.492982E-02
quench:  g(F)=  0.000E+00 g(S)=  0.000E+00 dE (1.order)= 0.000E+00
 bond charge predicted
       N       E                     dE             d eps       ncg     rms          rms(c)
DAV:   1    -0.128176158740E+03    0.75640E-02   -0.14051E+01  4464   0.812E+00    0.223E-01
DAV:   2    -0.128178073557E+03   -0.19148E-02   -0.34351E-02  4912   0.953E-01    0.188E-01
DAV:   3    -0.128177897266E+03    0.17629E-03   -0.54036E-03  4832   0.118E+00    0.146E-01
DAV:   4    -0.128177907800E+03   -0.10534E-04   -0.25925E-03  5520   0.138E+00    0.102E-01
DAV:   5    -0.128177092606E+03    0.81519E-03   -0.20186E-03  8344   0.103E+00    0.347E-02
DAV:   6    -0.128177097767E+03   -0.51614E-05   -0.60880E-04  5832   0.253E-01    0.176E-02
DAV:   7    -0.128177107781E+03   -0.10014E-04   -0.20245E-04  4672   0.892E-02    0.114E-02
DAV:   8    -0.128177108216E+03   -0.43541E-06   -0.35928E-05  3776   0.432E-02
  63 F= -.12817711E+03 E0= -.12813731E+03  d E =0.661738E-02
quench:  g(F)=  0.000E+00 g(S)=  0.000E+00 dE (1.order)= 0.000E+00
 bond charge predicted
       N       E                     dE             d eps       ncg     rms          rms(c)
DAV:   1    -0.128173988873E+03    0.31189E-02   -0.49310E+00  4480   0.481E+00    0.139E-01
DAV:   2    -0.128175518125E+03   -0.15293E-02   -0.19820E-02  4560   0.676E-01    0.113E-01
DAV:   3    -0.128175511150E+03    0.69750E-05   -0.24693E-03  4760   0.601E-01    0.881E-02
DAV:   4    -0.128175324392E+03    0.18676E-03   -0.37199E-04  5304   0.389E-01    0.345E-02
DAV:   5    -0.128175362670E+03   -0.38278E-04   -0.28383E-04  5416   0.437E-01    0.283E-02
DAV:   6    -0.128175302743E+03    0.59926E-04   -0.11768E-04  3880   0.283E-01    0.115E-02
DAV:   7    -0.128175305083E+03   -0.23391E-05   -0.73485E-05  4568   0.674E-02
  64 F= -.12817531E+03 E0= -.12813495E+03  d E =0.180313E-02
quench:  g(F)=  0.000E+00 g(S)=  0.000E+00 dE (1.order)= 0.000E+00
 bond charge predicted
       N       E                     dE             d eps       ncg     rms          rms(c)
DAV:   1    -0.128182162087E+03   -0.68593E-02   -0.11345E+01  4464   0.732E+00    0.201E-01
DAV:   2    -0.128183288796E+03   -0.11267E-02   -0.23787E-02  4592   0.720E-01    0.157E-01
DAV:   3    -0.128183069837E+03    0.21896E-03   -0.34966E-03  4816   0.102E+00    0.139E-01
DAV:   4    -0.128183097300E+03   -0.27463E-04   -0.24869E-03  7608   0.130E+00    0.769E-02
DAV:   5    -0.128182462667E+03    0.63463E-03   -0.13834E-03  8424   0.821E-01    0.394E-02
DAV:   6    -0.128182444314E+03    0.18352E-04   -0.28572E-04  5408   0.146E-01    0.218E-02
DAV:   7    -0.128182440998E+03    0.33163E-05   -0.85399E-05  4616   0.571E-02
  65 F= -.12818244E+03 E0= -.12814238E+03  d E =-.713592E-02
quench:  g(F)=  0.000E+00 g(S)=  0.000E+00 dE (1.order)= 0.000E+00
 bond charge predicted
       N       E                     dE             d eps       ncg     rms          rms(c)
DAV:   1    -0.128181186044E+03    0.12583E-02   -0.12475E+00  4496   0.233E+00    0.676E-02
DAV:   2    -0.128181698691E+03   -0.51265E-03   -0.62496E-03  4592   0.348E-01    0.549E-02
DAV:   3    -0.128181742046E+03   -0.43354E-04   -0.82560E-04  4744   0.427E-01    0.494E-02
DAV:   4    -0.128181695573E+03    0.46473E-04   -0.23012E-04  4744   0.379E-01    0.294E-02
DAV:   5    -0.128181668613E+03    0.26960E-04   -0.84773E-05  3944   0.240E-01    0.172E-02
DAV:   6    -0.128181661464E+03    0.71486E-05   -0.76381E-05  4896   0.115E-01
  66 F= -.12818166E+03 E0= -.12814182E+03  d E =0.779534E-03
quench:  g(F)=  0.000E+00 g(S)=  0.000E+00 dE (1.order)= 0.000E+00
 bond charge predicted
       N       E                     dE             d eps       ncg     rms          rms(c)
DAV:   1    -0.128182903177E+03   -0.12346E-02   -0.88227E-01  4496   0.199E+00    0.562E-02
DAV:   2    -0.128183166404E+03   -0.26323E-03   -0.35916E-03  4616   0.243E-01    0.443E-02
DAV:   3    -0.128183155595E+03    0.10810E-04   -0.35200E-04  4792   0.225E-01    0.342E-02
DAV:   4    -0.128183143853E+03    0.11742E-04   -0.12714E-04  4832   0.266E-01    0.254E-02
DAV:   5    -0.128183129151E+03    0.14702E-04   -0.93855E-05  4256   0.272E-01    0.160E-02
DAV:   6    -0.128183113150E+03    0.16001E-04   -0.32379E-05  2928   0.136E-01    0.395E-03
DAV:   7    -0.128183115873E+03   -0.27228E-05   -0.38481E-05  3568   0.401E-02
  67 F= -.12818312E+03 E0= -.12814319E+03  d E =-.145441E-02
quench:  g(F)=  0.000E+00 g(S)=  0.000E+00 dE (1.order)= 0.000E+00
 reached required accuracy - stopping structural energy minimisation
