 running on   40 total cores
 distrk:  each k-point on   40 cores,    1 groups
 distr:  one band on    1 cores,   40 groups
 using from now: INCAR     
 vasp.5.4.1 05Feb16 (build Nov 22 2018 20:17:51) complex                        
  
 POSCAR found type information on POSCAR  Pd
 POSCAR found :  1 types and      33 ions
 scaLAPACK will be used

 ----------------------------------------------------------------------------- 
|                                                                             |
|           W    W    AA    RRRRR   N    N  II  N    N   GGGG   !!!           |
|           W    W   A  A   R    R  NN   N  II  NN   N  G    G  !!!           |
|           W    W  A    A  R    R  N N  N  II  N N  N  G       !!!           |
|           W WW W  AAAAAA  RRRRR   N  N N  II  N  N N  G  GGG   !            |
|           WW  WW  A    A  R   R   N   NN  II  N   NN  G    G                |
|           W    W  A    A  R    R  N    N  II  N    N   GGGG   !!!           |
|                                                                             |
|      For optimal performance we recommend to set                            |
|        NCORE= 4 - approx SQRT( number of cores)                             |
|      NCORE specifies how many cores store one orbital (NPAR=cpu/NCORE).     |
|      This setting can  greatly improve the performance of VASP for DFT.     |
|      The default, NPAR=number of cores might be grossly inefficient         |
|      on modern multi-core architectures or massively parallel machines.     |
|      Do your own testing !!!!                                               |
|      Unfortunately you need to use the default for GW and RPA calculations. |
|      (for HF NCORE is supported but not extensively tested yet)             |
|                                                                             |
 ----------------------------------------------------------------------------- 

 LDA part: xc-table for Ceperly-Alder, standard interpolation
 POSCAR found type information on POSCAR  Pd
 POSCAR found :  1 types and      33 ions
 POSCAR, INCAR and KPOINTS ok, starting setup
 WARNING: small aliasing (wrap around) errors must be expected
 FFT: planning ...
 WAVECAR not read
 entering main loop
       N       E                     dE             d eps       ncg     rms          rms(c)
DAV:   1     0.275390547892E+04    0.27539E+04   -0.13779E+05  6000   0.138E+03
DAV:   2     0.710461665005E+02   -0.26829E+04   -0.25243E+04  6000   0.406E+02
DAV:   3    -0.157519356797E+03   -0.22857E+03   -0.20570E+03  7200   0.106E+02
DAV:   4    -0.165677703347E+03   -0.81583E+01   -0.80715E+01  6400   0.287E+01
DAV:   5    -0.165899902381E+03   -0.22220E+00   -0.22216E+00  8880   0.312E+00    0.157E+01
RMM:   6    -0.165084550515E+03    0.81535E+00   -0.23322E+01  6018   0.157E+01    0.416E+01
RMM:   7    -0.166114838261E+03   -0.10303E+01   -0.10571E+01  6082   0.593E+00    0.174E+01
RMM:   8    -0.176140917193E+03   -0.10026E+02   -0.83212E+00  6028   0.637E+00    0.270E+01
RMM:   9    -0.166268184269E+03    0.98727E+01   -0.47975E+00  6033   0.545E+00    0.193E+01
RMM:  10    -0.161707460637E+03    0.45607E+01   -0.17549E+00  6020   0.369E+00    0.101E+01
RMM:  11    -0.161174529133E+03    0.53293E+00   -0.32514E-01  6083   0.132E+00    0.833E+00
RMM:  12    -0.160828261182E+03    0.34627E+00   -0.14066E-01  6035   0.936E-01    0.721E+00
RMM:  13    -0.160453031189E+03    0.37523E+00   -0.21567E-01  6019   0.113E+00    0.652E+00
RMM:  14    -0.159835950525E+03    0.61708E+00   -0.31680E-01  6017   0.127E+00    0.506E+00
RMM:  15    -0.159439515808E+03    0.39643E+00   -0.23723E-01  6023   0.104E+00    0.442E+00
RMM:  16    -0.159153756403E+03    0.28576E+00   -0.13231E-01  6035   0.700E-01    0.368E+00
RMM:  17    -0.159030371588E+03    0.12338E+00   -0.48614E-02  6182   0.382E-01    0.334E+00
RMM:  18    -0.158783183829E+03    0.24719E+00   -0.98414E-02  6025   0.505E-01    0.263E+00
RMM:  19    -0.158558762557E+03    0.22442E+00   -0.23105E-01  6028   0.703E-01    0.822E-01
RMM:  20    -0.158554374951E+03    0.43876E-02   -0.35185E-02  6861   0.231E-01    0.574E-01
RMM:  21    -0.158554246143E+03    0.12881E-03   -0.94341E-04  6423   0.451E-02    0.579E-01
RMM:  22    -0.158557002260E+03   -0.27561E-02   -0.41405E-03  6019   0.160E-01    0.101E+00
RMM:  23    -0.158556858924E+03    0.14334E-03   -0.12647E-02  6017   0.290E-01    0.953E-01
RMM:  24    -0.158550173415E+03    0.66855E-02   -0.23155E-03  6112   0.105E-01    0.574E-01
RMM:  25    -0.158548717779E+03    0.14556E-02   -0.17046E-03  6018   0.891E-02    0.599E-01
RMM:  26    -0.158543933217E+03    0.47846E-02   -0.23626E-03  6007   0.106E-01    0.218E-01
RMM:  27    -0.158543898096E+03    0.35120E-04   -0.37671E-03  6011   0.130E-01    0.278E-01
RMM:  28    -0.158543444421E+03    0.45368E-03   -0.39266E-04  5922   0.254E-02    0.194E-01
RMM:  29    -0.158543486517E+03   -0.42096E-04   -0.70508E-05  5040   0.189E-02    0.192E-01
RMM:  30    -0.158544563365E+03   -0.10768E-02   -0.17504E-04  5957   0.288E-02    0.270E-01
RMM:  31    -0.158545943926E+03   -0.13806E-02   -0.41633E-04  5818   0.361E-02    0.109E-01
RMM:  32    -0.158546511039E+03   -0.56711E-03   -0.11445E-04  4517   0.182E-02    0.134E-01
RMM:  33    -0.158546842291E+03   -0.33125E-03   -0.73855E-05  4282   0.127E-02    0.961E-02
RMM:  34    -0.158547220889E+03   -0.37860E-03   -0.25928E-04  5033   0.200E-02    0.146E-02
RMM:  35    -0.158547253380E+03   -0.32491E-04   -0.73961E-05  4205   0.118E-02    0.212E-02
RMM:  36    -0.158547348029E+03   -0.94649E-04   -0.29839E-05  3873   0.833E-03    0.977E-02
RMM:  37    -0.158547266642E+03    0.81387E-04   -0.70841E-06  3359   0.636E-03    0.291E-02
RMM:  38    -0.158547263320E+03    0.33228E-05   -0.80677E-06  3388   0.551E-03
   1 F= -.15854726E+03 E0= -.15854472E+03  d E =-.158547E+03
 curvature:   0.00 expect dE= 0.000E+00 dE for cont linesearch  0.000E+00
 trial: gam= 0.00000 g(F)=  0.487E-01 g(S)=  0.000E+00 ort = 0.000E+00 (trialstep = 0.100E+01)
 search vector abs. value=  0.487E-01
 bond charge predicted
       N       E                     dE             d eps       ncg     rms          rms(c)
DAV:   1    -0.158590735287E+03   -0.43469E-01   -0.29380E+00  6920   0.283E+00    0.352E-01
RMM:   2    -0.158604394569E+03   -0.13659E-01   -0.93193E-02  6024   0.533E-01    0.778E-01
RMM:   3    -0.158601487315E+03    0.29073E-02   -0.17564E-02  6790   0.203E-01    0.721E-01
RMM:   4    -0.158601184410E+03    0.30291E-03   -0.29273E-03  6065   0.125E-01    0.757E-01
RMM:   5    -0.158596487850E+03    0.46966E-02   -0.14259E-03  6008   0.987E-02    0.184E-01
RMM:   6    -0.158595990961E+03    0.49689E-03   -0.33646E-04  6002   0.509E-02    0.950E-02
RMM:   7    -0.158595882586E+03    0.10837E-03   -0.35478E-04  6034   0.342E-02    0.799E-02
RMM:   8    -0.158595831553E+03    0.51034E-04   -0.30998E-04  6455   0.302E-02    0.618E-02
RMM:   9    -0.158595823415E+03    0.81378E-05   -0.13476E-04  5833   0.247E-02    0.488E-02
RMM:  10    -0.158595802800E+03    0.20615E-04   -0.39956E-05  4053   0.155E-02    0.234E-02
RMM:  11    -0.158595798373E+03    0.44276E-05   -0.93682E-06  3169   0.105E-02
   2 F= -.15859580E+03 E0= -.15859328E+03  d E =-.485351E-01
 ZBRENT: can't locate minimum, use default step
 trial-energy change:   -0.048535  1 .order   -0.048628   -0.048671   -0.048585
 step:   4.0000(harm=568.9439)  dis= 0.01927  next Energy=  -172.392786 (dE=-0.138E+02)
 bond charge predicted
       N       E                     dE             d eps       ncg     rms          rms(c)
DAV:   1    -0.158688952231E+03   -0.93149E-01   -0.26521E+01  6000   0.856E+00    0.128E+00
RMM:   2    -0.158906178245E+03   -0.21723E+00   -0.11238E+00  6023   0.219E+00    0.302E+00
RMM:   3    -0.159085201215E+03   -0.17902E+00   -0.25377E-01  6537   0.861E-01    0.567E+00
RMM:   4    -0.158754094214E+03    0.33111E+00   -0.74224E-02  6017   0.636E-01    0.676E-01
RMM:   5    -0.158748003048E+03    0.60912E-02   -0.17019E-02  6024   0.321E-01    0.733E-01
RMM:   6    -0.158742677638E+03    0.53254E-02   -0.40706E-03  6042   0.167E-01    0.357E-01
RMM:   7    -0.158741799982E+03    0.87766E-03   -0.16638E-03  6217   0.881E-02    0.293E-01
RMM:   8    -0.158740714923E+03    0.10851E-02   -0.29300E-03  6145   0.954E-02    0.189E-01
RMM:   9    -0.158740530768E+03    0.18415E-03   -0.24417E-03  6639   0.898E-02    0.129E-01
RMM:  10    -0.158740441130E+03    0.89638E-04   -0.78099E-04  6461   0.555E-02    0.759E-02
RMM:  11    -0.158740388222E+03    0.52908E-04   -0.15193E-04  5558   0.300E-02    0.673E-02
RMM:  12    -0.158740358371E+03    0.29851E-04   -0.58646E-05  4277   0.170E-02    0.609E-02
RMM:  13    -0.158740311535E+03    0.46835E-04   -0.94043E-05  4594   0.183E-02    0.262E-02
RMM:  14    -0.158740306429E+03    0.51067E-05   -0.33006E-05  3735   0.134E-02
   3 F= -.15874031E+03 E0= -.15873783E+03  d E =-.193043E+00
 curvature:  -3.00 expect dE=-0.138E+00 dE for cont linesearch -0.137E+00
 ZBRENT: increasing intervall
 opt :  10.0000  next Energy=  -159.013999 (dE=-0.467E+00)
 bond charge predicted
       N       E                     dE             d eps       ncg     rms          rms(c)
DAV:   1    -0.158766471291E+03   -0.26160E-01   -0.10803E+02  6000   0.177E+01    0.305E+00
RMM:   2    -0.160175118757E+03   -0.14086E+01   -0.61979E+00  6019   0.572E+00    0.753E+00
RMM:   3    -0.160790793688E+03   -0.61567E+00   -0.14669E+00  6605   0.212E+00    0.118E+01
RMM:   4    -0.159094173588E+03    0.16966E+01   -0.51109E-01  6018   0.172E+00    0.190E+00
RMM:   5    -0.159055758833E+03    0.38415E-01   -0.13892E-01  6029   0.865E-01    0.169E+00
RMM:   6    -0.159025939747E+03    0.29819E-01   -0.32868E-02  6093   0.422E-01    0.806E-01
RMM:   7    -0.159023291842E+03    0.26479E-02   -0.71622E-03  6489   0.173E-01    0.687E-01
RMM:   8    -0.159019367068E+03    0.39248E-02   -0.53772E-03  6085   0.139E-01    0.527E-01
RMM:   9    -0.159016864023E+03    0.25030E-02   -0.84715E-03  6218   0.177E-01    0.396E-01
RMM:  10    -0.159015503178E+03    0.13608E-02   -0.13108E-02  6545   0.209E-01    0.168E-01
RMM:  11    -0.159015376909E+03    0.12627E-03   -0.13648E-03  6917   0.762E-02    0.138E-01
RMM:  12    -0.159015132260E+03    0.24465E-03   -0.19659E-04  5988   0.317E-02    0.941E-02
RMM:  13    -0.159015041877E+03    0.90384E-04   -0.45817E-04  6001   0.391E-02    0.913E-02
RMM:  14    -0.159014983681E+03    0.58195E-04   -0.33495E-04  6091   0.299E-02    0.636E-02
RMM:  15    -0.159014960390E+03    0.23291E-04   -0.95789E-05  4777   0.190E-02    0.296E-02
RMM:  16    -0.159014954354E+03    0.60361E-05   -0.22293E-05  3568   0.131E-02
   4 F= -.15901495E+03 E0= -.15901251E+03  d E =-.467691E+00
 curvature:  -6.00 expect dE=-0.245E+00 dE for cont linesearch -0.229E+00
 ZBRENT: increasing intervall
 opt :  22.0000  next Energy=  -159.484311 (dE=-0.937E+00)
 bond charge predicted
       N       E                     dE             d eps       ncg     rms          rms(c)
DAV:   1    -0.158377433341E+03    0.63753E+00   -0.46615E+02  6000   0.388E+01    0.867E+00
RMM:   2    -0.175803307966E+03   -0.17426E+02   -0.41872E+01  6018   0.112E+01    0.232E+01
RMM:   3    -0.168876103721E+03    0.69272E+01   -0.97393E+00  6190   0.598E+00    0.211E+01
RMM:   4    -0.161200053693E+03    0.76761E+01   -0.38619E+00  6018   0.510E+00    0.906E+00
RMM:   5    -0.160107762049E+03    0.10923E+01   -0.10232E+00  6022   0.259E+00    0.515E+00
RMM:   6    -0.159743742426E+03    0.36402E+00   -0.48842E-01  6021   0.165E+00    0.433E+00
RMM:   7    -0.159559787479E+03    0.18395E+00   -0.16447E-01  6107   0.883E-01    0.288E+00
RMM:   8    -0.159462009355E+03    0.97778E-01   -0.98903E-02  6044   0.690E-01    0.182E+00
RMM:   9    -0.159428142600E+03    0.33867E-01   -0.44019E-02  6126   0.427E-01    0.113E+00
RMM:  10    -0.159423435850E+03    0.47067E-02   -0.15464E-02  6623   0.257E-01    0.984E-01
RMM:  11    -0.159416183202E+03    0.72526E-02   -0.14796E-02  6054   0.261E-01    0.852E-01
RMM:  12    -0.159410075125E+03    0.61081E-02   -0.24536E-02  6086   0.340E-01    0.430E-01
RMM:  13    -0.159409516202E+03    0.55892E-03   -0.62006E-03  7221   0.148E-01    0.345E-01
RMM:  14    -0.159408225425E+03    0.12908E-02   -0.70806E-04  6023   0.634E-02    0.163E-01
RMM:  15    -0.159408081046E+03    0.14438E-03   -0.57091E-04  6009   0.538E-02    0.167E-01
RMM:  16    -0.159408166531E+03   -0.85485E-04   -0.22313E-04  5966   0.366E-02    0.180E-01
RMM:  17    -0.159407916866E+03    0.24967E-03   -0.17316E-04  5696   0.277E-02    0.697E-02
RMM:  18    -0.159407930343E+03   -0.13477E-04   -0.24072E-04  5319   0.323E-02    0.624E-02
RMM:  19    -0.159407908756E+03    0.21587E-04   -0.28134E-05  3774   0.121E-02    0.304E-02
RMM:  20    -0.159407910803E+03   -0.20472E-05   -0.13511E-05  3460   0.103E-02
   5 F= -.15940791E+03 E0= -.15940540E+03  d E =-.860647E+00
 curvature: -12.29 expect dE=-0.239E+00 dE for cont linesearch -0.790E-01
 ZBRENT: increasing intervall
 opt :  46.0000  next Energy=  -159.222375 (dE=-0.675E+00)
 bond charge predicted
       N       E                     dE             d eps       ncg     rms          rms(c)
DAV:   1    -0.154130689129E+03    0.52772E+01   -0.19638E+03  6240   0.894E+01    0.221E+01
RMM:   2    -0.274079320841E+03   -0.11995E+03   -0.35037E+02  7693   0.309E+01    0.523E+01
RMM:   3    -0.209509020792E+03    0.64570E+02   -0.66805E+01  6005   0.176E+01    0.421E+01
RMM:   4    -0.174729608219E+03    0.34779E+02   -0.26924E+01  6011   0.121E+01    0.261E+01
RMM:   5    -0.164425894117E+03    0.10304E+02   -0.83988E+00  6027   0.743E+00    0.133E+01
RMM:   6    -0.162529824506E+03    0.18961E+01   -0.34368E+00  6013   0.463E+00    0.127E+01
RMM:   7    -0.161098699401E+03    0.14311E+01   -0.10709E+00  6008   0.243E+00    0.102E+01
RMM:   8    -0.160124679984E+03    0.97402E+00   -0.35910E-01  6128   0.135E+00    0.818E+00
RMM:   9    -0.159125389539E+03    0.99929E+00   -0.51280E-01  6011   0.164E+00    0.594E+00
RMM:  10    -0.158643039512E+03    0.48235E+00   -0.28700E-01  6014   0.122E+00    0.426E+00
RMM:  11    -0.158578031512E+03    0.65008E-01   -0.45556E-02  6463   0.396E-01    0.401E+00
RMM:  12    -0.158471592260E+03    0.10644E+00   -0.30182E-02  6016   0.425E-01    0.353E+00
RMM:  13    -0.158265230975E+03    0.20636E+00   -0.11104E-01  6016   0.770E-01    0.217E+00
RMM:  14    -0.158209156651E+03    0.56074E-01   -0.57349E-02  6017   0.546E-01    0.157E+00
RMM:  15    -0.158176185639E+03    0.32971E-01   -0.56409E-02  6026   0.535E-01    0.693E-01
RMM:  16    -0.158174729266E+03    0.14564E-02   -0.11866E-02  6978   0.210E-01    0.556E-01
RMM:  17    -0.158174179031E+03    0.55024E-03   -0.50440E-03  6031   0.181E-01    0.580E-01
RMM:  18    -0.158187855941E+03   -0.13677E-01   -0.17313E-02  6018   0.286E-01    0.119E+00
RMM:  19    -0.158173282779E+03    0.14573E-01   -0.12148E-02  6017   0.260E-01    0.284E-01
RMM:  20    -0.158174389875E+03   -0.11071E-02   -0.21624E-03  6026   0.111E-01    0.505E-01
RMM:  21    -0.158172566034E+03    0.18238E-02   -0.55450E-04  6005   0.564E-02    0.179E-01
RMM:  22    -0.158172390551E+03    0.17548E-03   -0.46910E-04  5894   0.534E-02    0.881E-02
RMM:  23    -0.158172341855E+03    0.48696E-04   -0.87156E-05  5123   0.228E-02    0.737E-02
RMM:  24    -0.158172371668E+03   -0.29813E-04   -0.60504E-05  4482   0.176E-02    0.373E-02
RMM:  25    -0.158172414829E+03   -0.43162E-04   -0.25682E-05  3640   0.128E-02    0.406E-02
RMM:  26    -0.158172486293E+03   -0.71463E-04   -0.29407E-05  3758   0.111E-02    0.651E-02
RMM:  27    -0.158172476342E+03    0.99506E-05   -0.62570E-05  4439   0.192E-02
   6 F= -.15817248E+03 E0= -.15816857E+03  d E =0.374787E+00
 curvature:  28.86 expect dE= 0.196E+02 dE for cont linesearch  0.136E+02
 ZBRENT: bracketing found
 ZBRENT: interpolating
 opt :  24.5060  next Energy=  -159.430074 (dE=-0.883E+00)
 bond charge predicted
       N       E                     dE             d eps       ncg     rms          rms(c)
DAV:   1    -0.152223733933E+03    0.59488E+01   -0.15915E+03  6000   0.847E+01    0.734E+00
RMM:   2    -0.163207601197E+03   -0.10984E+02   -0.12211E+02  6816   0.219E+01    0.674E+00
RMM:   3    -0.164898145295E+03   -0.16905E+01   -0.62541E+00  6485   0.608E+00    0.196E+01
RMM:   4    -0.160574023159E+03    0.43241E+01   -0.16316E+00  6117   0.274E+00    0.847E+00
RMM:   5    -0.159873991914E+03    0.70003E+00   -0.37203E-01  6015   0.163E+00    0.469E+00
RMM:   6    -0.159726955903E+03    0.14704E+00   -0.10901E-01  6021   0.818E-01    0.414E+00
RMM:   7    -0.159567572079E+03    0.15938E+00   -0.12242E-01  6056   0.723E-01    0.263E+00
RMM:   8    -0.159495241572E+03    0.72331E-01   -0.14531E-01  6318   0.734E-01    0.183E+00
RMM:   9    -0.159452730809E+03    0.42511E-01   -0.20381E-01  6324   0.861E-01    0.119E+00
RMM:  10    -0.159449897428E+03    0.28334E-02   -0.10972E-01  6659   0.643E-01    0.905E-01
RMM:  11    -0.159444104092E+03    0.57933E-02   -0.14086E-02  6342   0.276E-01    0.521E-01
RMM:  12    -0.159442678172E+03    0.14259E-02   -0.56838E-03  6016   0.185E-01    0.410E-01
RMM:  13    -0.159440444409E+03    0.22338E-02   -0.42783E-03  6017   0.148E-01    0.286E-01
RMM:  14    -0.159439535176E+03    0.90923E-03   -0.24171E-03  6321   0.100E-01    0.153E-01
RMM:  15    -0.159439444711E+03    0.90465E-04   -0.51503E-04  6015   0.575E-02    0.116E-01
RMM:  16    -0.159439382427E+03    0.62285E-04   -0.33483E-04  6070   0.410E-02    0.530E-02
RMM:  17    -0.159439448601E+03   -0.66174E-04   -0.64548E-05  4912   0.199E-02    0.535E-02
RMM:  18    -0.159439644982E+03   -0.19638E-03   -0.33459E-05  3874   0.152E-02    0.372E-02
RMM:  19    -0.159439784132E+03   -0.13915E-03   -0.19599E-05  3577   0.969E-03    0.217E-02
RMM:  20    -0.159440023613E+03   -0.23948E-03   -0.26570E-05  3798   0.111E-02    0.320E-02
RMM:  21    -0.159440143192E+03   -0.11958E-03   -0.15069E-05  3530   0.789E-03    0.152E-02
RMM:  22    -0.159440393113E+03   -0.24992E-03   -0.44638E-05  4130   0.981E-03    0.790E-02
RMM:  23    -0.159440493124E+03   -0.10001E-03   -0.34489E-05  3859   0.800E-03    0.696E-02
RMM:  24    -0.159440505748E+03   -0.12625E-04   -0.10218E-05  3255   0.509E-03    0.605E-02
RMM:  25    -0.159440512524E+03   -0.67762E-05   -0.13343E-05  3420   0.516E-03
   7 F= -.15944051E+03 E0= -.15943793E+03  d E =-.893249E+00
 curvature:  -0.05 expect dE=-0.884E-03 dE for cont linesearch -0.626E-04
 ZBRENT: interpolating
 opt :  26.4984  next Energy=  -159.448948 (dE=-0.902E+00)
 bond charge predicted
       N       E                     dE             d eps       ncg     rms          rms(c)
DAV:   1    -0.159426828966E+03    0.13677E-01   -0.11595E+01  6000   0.633E+00    0.874E-01
RMM:   2    -0.159684325876E+03   -0.25750E+00   -0.48815E-01  6021   0.163E+00    0.447E+00
RMM:   3    -0.159558240174E+03    0.12609E+00   -0.10940E-01  6427   0.638E-01    0.317E+00
RMM:   4    -0.159456028978E+03    0.10221E+00   -0.48199E-02  6010   0.569E-01    0.609E-01
RMM:   5    -0.159450414611E+03    0.56144E-02   -0.10293E-02  6013   0.256E-01    0.378E-01
RMM:   6    -0.159448974191E+03    0.14404E-02   -0.14454E-03  6023   0.949E-02    0.246E-01
RMM:   7    -0.159448613483E+03    0.36071E-03   -0.42389E-04  6199   0.494E-02    0.197E-01
RMM:   8    -0.159448155113E+03    0.45837E-03   -0.12983E-03  6031   0.728E-02    0.169E-01
RMM:   9    -0.159447875036E+03    0.28008E-03   -0.20012E-03  6414   0.821E-02    0.106E-01
RMM:  10    -0.159447854430E+03    0.20606E-04   -0.54648E-04  7187   0.478E-02    0.651E-02
RMM:  11    -0.159447810072E+03    0.44358E-04   -0.61021E-05  5241   0.207E-02    0.388E-02
RMM:  12    -0.159447788343E+03    0.21729E-04   -0.37226E-05  3971   0.139E-02    0.315E-02
RMM:  13    -0.159447777193E+03    0.11150E-04   -0.45411E-05  4231   0.147E-02    0.203E-02
RMM:  14    -0.159447777024E+03    0.16820E-06   -0.23835E-05  3549   0.113E-02
   8 F= -.15944778E+03 E0= -.15944512E+03  d E =-.900514E+00
 curvature:  -6.32 expect dE=-0.137E+00 dE for cont linesearch -0.162E-03
 trial: gam= 0.46963 g(F)=  0.217E-01 g(S)=  0.000E+00 ort =-0.112E-02 (trialstep = 0.610E+01)
 search vector abs. value=  0.314E-01
 bond charge predicted
       N       E                     dE             d eps       ncg     rms          rms(c)
DAV:   1    -0.159378574025E+03    0.69203E-01   -0.69053E+01  6000   0.166E+01    0.214E+00
RMM:   2    -0.161055394811E+03   -0.16768E+01   -0.34692E+00  6022   0.489E+00    0.984E+00
RMM:   3    -0.160101532623E+03    0.95386E+00   -0.81272E-01  6763   0.169E+00    0.661E+00
RMM:   4    -0.159596257044E+03    0.50528E+00   -0.27847E-01  6018   0.140E+00    0.144E+00
RMM:   5    -0.159570823555E+03    0.25433E-01   -0.64382E-02  6018   0.638E-01    0.115E+00
RMM:   6    -0.159561718551E+03    0.91050E-02   -0.11919E-02  6085   0.264E-01    0.850E-01
RMM:   7    -0.159557146898E+03    0.45717E-02   -0.34525E-03  6159   0.142E-01    0.617E-01
RMM:   8    -0.159552461574E+03    0.46853E-02   -0.10206E-02  6197   0.203E-01    0.478E-01
RMM:   9    -0.159550105416E+03    0.23562E-02   -0.16666E-02  6777   0.242E-01    0.336E-01
RMM:  10    -0.159549648428E+03    0.45699E-03   -0.44612E-03  7903   0.134E-01    0.152E-01
RMM:  11    -0.159549445100E+03    0.20333E-03   -0.47689E-04  6007   0.589E-02    0.116E-01
RMM:  12    -0.159549333719E+03    0.11138E-03   -0.27609E-04  5993   0.368E-02    0.124E-01
RMM:  13    -0.159549190337E+03    0.14338E-03   -0.37438E-04  6140   0.350E-02    0.800E-02
RMM:  14    -0.159549148107E+03    0.42230E-04   -0.28289E-04  6880   0.310E-02    0.257E-02
RMM:  15    -0.159549151516E+03   -0.34086E-05   -0.17636E-05  3429   0.119E-02
   9 F= -.15954915E+03 E0= -.15954647E+03  d E =-.101374E+00
 trial-energy change:   -0.101374  1 .order   -0.101241   -0.129420   -0.073062
 step:  14.0072(harm= 14.0072)  dis= 0.05288  next Energy=  -159.596375 (dE=-0.149E+00)
 bond charge predicted
       N       E                     dE             d eps       ncg     rms          rms(c)
DAV:   1    -0.159287214929E+03    0.26193E+00   -0.11673E+02  6000   0.218E+01    0.301E+00
RMM:   2    -0.162777872052E+03   -0.34907E+01   -0.66659E+00  6025   0.681E+00    0.139E+01
RMM:   3    -0.160632232950E+03    0.21456E+01   -0.15992E+00  6728   0.238E+00    0.860E+00
RMM:   4    -0.159694210969E+03    0.93802E+00   -0.56004E-01  6018   0.201E+00    0.211E+00
RMM:   5    -0.159638375940E+03    0.55835E-01   -0.13317E-01  6019   0.916E-01    0.161E+00
RMM:   6    -0.159621918861E+03    0.16457E-01   -0.26206E-02  6109   0.378E-01    0.123E+00
RMM:   7    -0.159611799985E+03    0.10119E-01   -0.70432E-03  6144   0.203E-01    0.871E-01
RMM:   8    -0.159604853854E+03    0.69461E-02   -0.11665E-02  6334   0.219E-01    0.691E-01
RMM:   9    -0.159598161059E+03    0.66928E-02   -0.23378E-02  6514   0.290E-01    0.412E-01
RMM:  10    -0.159597797895E+03    0.36316E-03   -0.14689E-02  7015   0.250E-01    0.283E-01
RMM:  11    -0.159597219815E+03    0.57808E-03   -0.23190E-03  6310   0.114E-01    0.149E-01
RMM:  12    -0.159597108444E+03    0.11137E-03   -0.40394E-04  6019   0.517E-02    0.179E-01
RMM:  13    -0.159596805958E+03    0.30249E-03   -0.41144E-04  6002   0.423E-02    0.134E-01
RMM:  14    -0.159596660053E+03    0.14590E-03   -0.47958E-04  6622   0.414E-02    0.658E-02
RMM:  15    -0.159596644703E+03    0.15351E-04   -0.16227E-04  6361   0.258E-02    0.225E-02
RMM:  16    -0.159596654322E+03   -0.96195E-05   -0.15533E-05  3403   0.106E-02
  10 F= -.15959665E+03 E0= -.15959378E+03  d E =-.148877E+00
 curvature: -10.37 expect dE=-0.122E+00 dE for cont linesearch -0.105E-04
 trial: gam= 0.20931 g(F)=  0.118E-01 g(S)=  0.000E+00 ort =-0.179E-03 (trialstep = 0.768E+01)
 search vector abs. value=  0.131E-01
 bond charge predicted
       N       E                     dE             d eps       ncg     rms          rms(c)
DAV:   1    -0.159545489108E+03    0.51156E-01   -0.44934E+01  6000   0.138E+01    0.110E+00
RMM:   2    -0.159673586313E+03   -0.12810E+00   -0.13855E+00  6023   0.294E+00    0.157E+00
RMM:   3    -0.159903789414E+03   -0.23020E+00   -0.29700E-01  7958   0.103E+00    0.510E+00
RMM:   4    -0.159687792042E+03    0.21600E+00   -0.50834E-02  6026   0.572E-01    0.137E+00
RMM:   5    -0.159663122878E+03    0.24669E-01   -0.14875E-02  6020   0.335E-01    0.660E-01
RMM:   6    -0.159659688398E+03    0.34345E-02   -0.36593E-03  6023   0.152E-01    0.526E-01
RMM:   7    -0.159656942586E+03    0.27458E-02   -0.42491E-03  6423   0.125E-01    0.409E-01
RMM:   8    -0.159654400126E+03    0.25425E-02   -0.86775E-03  6300   0.182E-01    0.267E-01
RMM:   9    -0.159654365996E+03    0.34131E-04   -0.75566E-03  7210   0.172E-01    0.244E-01
RMM:  10    -0.159654235990E+03    0.13001E-03   -0.25203E-03  6901   0.106E-01    0.134E-01
RMM:  11    -0.159654028969E+03    0.20702E-03   -0.28634E-04  6009   0.448E-02    0.128E-01
RMM:  12    -0.159653751775E+03    0.27719E-03   -0.39288E-04  6021   0.429E-02    0.758E-02
RMM:  13    -0.159653703984E+03    0.47790E-04   -0.16847E-04  6672   0.255E-02    0.483E-02
RMM:  14    -0.159653679543E+03    0.24441E-04   -0.10155E-04  5822   0.203E-02    0.321E-02
RMM:  15    -0.159653671626E+03    0.79176E-05   -0.28902E-05  3480   0.122E-02
  11 F= -.15965367E+03 E0= -.15965094E+03  d E =-.570173E-01
 trial-energy change:   -0.057017  1 .order   -0.055920   -0.090106   -0.021734
 step:   9.8545(harm= 10.1229)  dis= 0.03796  next Energy=  -159.656771 (dE=-0.601E-01)
 bond charge predicted
       N       E                     dE             d eps       ncg     rms          rms(c)
DAV:   1    -0.159649974717E+03    0.37048E-02   -0.35971E+00  6080   0.388E+00    0.283E-01
RMM:   2    -0.159659674090E+03   -0.96994E-02   -0.10038E-01  6023   0.710E-01    0.438E-01
RMM:   3    -0.159675035287E+03   -0.15361E-01   -0.17085E-02  7690   0.258E-01    0.138E+00
RMM:   4    -0.159660161872E+03    0.14873E-01   -0.36269E-03  6031   0.152E-01    0.353E-01
RMM:   5    -0.159658459239E+03    0.17026E-02   -0.91863E-04  6018   0.844E-02    0.158E-01
RMM:   6    -0.159658250687E+03    0.20855E-03   -0.21155E-04  5998   0.366E-02    0.129E-01
RMM:   7    -0.159658026518E+03    0.22417E-03   -0.48993E-04  6263   0.424E-02    0.994E-02
RMM:   8    -0.159657878148E+03    0.14837E-03   -0.92743E-04  6381   0.571E-02    0.521E-02
RMM:   9    -0.159657922404E+03   -0.44256E-04   -0.39369E-04  7383   0.397E-02    0.648E-02
RMM:  10    -0.159657904207E+03    0.18196E-04   -0.71850E-05  5577   0.209E-02    0.383E-02
RMM:  11    -0.159657886025E+03    0.18182E-04   -0.11296E-05  3244   0.978E-03    0.319E-02
RMM:  12    -0.159657861201E+03    0.24824E-04   -0.56049E-05  4652   0.157E-02    0.151E-02
RMM:  13    -0.159657859079E+03    0.21218E-05   -0.16249E-05  3135   0.104E-02
  12 F= -.15965786E+03 E0= -.15965516E+03  d E =-.612048E-01
 curvature:  -5.57 expect dE=-0.191E-01 dE for cont linesearch -0.110E-03
 trial: gam= 0.23570 g(F)=  0.343E-02 g(S)=  0.000E+00 ort = 0.508E-03 (trialstep = 0.812E+01)
 search vector abs. value=  0.439E-02
 bond charge predicted
       N       E                     dE             d eps       ncg     rms          rms(c)
DAV:   1    -0.159639453653E+03    0.18408E-01   -0.16921E+01  6000   0.856E+00    0.617E-01
RMM:   2    -0.159692365953E+03   -0.52912E-01   -0.51935E-01  6026   0.162E+00    0.104E+00
RMM:   3    -0.159719511048E+03   -0.27145E-01   -0.79533E-02  8233   0.539E-01    0.206E+00
RMM:   4    -0.159700259303E+03    0.19252E-01   -0.12042E-02  6051   0.258E-01    0.137E+00
RMM:   5    -0.159682489418E+03    0.17770E-01   -0.50048E-03  6017   0.196E-01    0.374E-01
RMM:   6    -0.159681189459E+03    0.13000E-02   -0.83842E-04  6033   0.708E-02    0.313E-01
RMM:   7    -0.159679711102E+03    0.14784E-02   -0.23364E-03  6263   0.918E-02    0.231E-01
RMM:   8    -0.159678913254E+03    0.79785E-03   -0.40697E-03  6729   0.123E-01    0.146E-01
RMM:   9    -0.159679068181E+03   -0.15493E-03   -0.40676E-03  7398   0.120E-01    0.134E-01
RMM:  10    -0.159678982160E+03    0.86021E-04   -0.40086E-04  6960   0.475E-02    0.103E-01
RMM:  11    -0.159678853626E+03    0.12853E-03   -0.74041E-05  5683   0.217E-02    0.808E-02
RMM:  12    -0.159678726213E+03    0.12741E-03   -0.22667E-04  5967   0.290E-02    0.431E-02
RMM:  13    -0.159678706253E+03    0.19960E-04   -0.92682E-05  5779   0.191E-02    0.301E-02
RMM:  14    -0.159678694165E+03    0.12088E-04   -0.11291E-04  6020   0.207E-02    0.101E-02
RMM:  15    -0.159678694422E+03   -0.25671E-06   -0.15799E-05  3139   0.102E-02
  13 F= -.15967869E+03 E0= -.15967599E+03  d E =-.208353E-01
 trial-energy change:   -0.020835  1 .order   -0.020074   -0.028799   -0.011349
 step:  11.9275(harm= 13.3941)  dis= 0.01932  next Energy=  -159.681438 (dE=-0.236E-01)
 bond charge predicted
       N       E                     dE             d eps       ncg     rms          rms(c)
DAV:   1    -0.159674249053E+03    0.44451E-02   -0.37352E+00  6000   0.402E+00    0.284E-01
RMM:   2    -0.159685779618E+03   -0.11531E-01   -0.11258E-01  6027   0.736E-01    0.495E-01
RMM:   3    -0.159690965412E+03   -0.51858E-02   -0.16559E-02  8191   0.243E-01    0.909E-01
RMM:   4    -0.159687463904E+03    0.35015E-02   -0.25336E-03  6052   0.119E-01    0.640E-01
RMM:   5    -0.159683577740E+03    0.38862E-02   -0.10512E-03  6016   0.890E-02    0.167E-01
RMM:   6    -0.159683314479E+03    0.26326E-03   -0.17464E-04  6000   0.319E-02    0.142E-01
RMM:   7    -0.159682973611E+03    0.34087E-03   -0.67363E-04  6134   0.492E-02    0.106E-01
RMM:   8    -0.159682824100E+03    0.14951E-03   -0.93673E-04  6817   0.571E-02    0.637E-02
RMM:   9    -0.159682873026E+03   -0.48925E-04   -0.67595E-04  7406   0.498E-02    0.654E-02
RMM:  10    -0.159682850669E+03    0.22357E-04   -0.76697E-05  5533   0.220E-02    0.468E-02
RMM:  11    -0.159682826777E+03    0.23892E-04   -0.10555E-05  3201   0.935E-03    0.379E-02
RMM:  12    -0.159682794995E+03    0.31782E-04   -0.52907E-05  4681   0.150E-02    0.199E-02
RMM:  13    -0.159682789615E+03    0.53795E-05   -0.22623E-05  3166   0.112E-02
  14 F= -.15968279E+03 E0= -.15968008E+03  d E =-.249305E-01
 curvature:  -7.65 expect dE=-0.753E-02 dE for cont linesearch -0.348E-03
 ZBRENT: extrapolating
 opt :  13.7188  next Energy=  -159.683190 (dE=-0.253E-01)
 bond charge predicted
       N       E                     dE             d eps       ncg     rms          rms(c)
DAV:   1    -0.159681780520E+03    0.10145E-02   -0.82613E-01  6080   0.189E+00    0.132E-01
RMM:   2    -0.159684303620E+03   -0.25231E-02   -0.24861E-02  6027   0.345E-01    0.227E-01
RMM:   3    -0.159685026029E+03   -0.72241E-03   -0.36220E-03  8177   0.114E-01    0.358E-01
RMM:   4    -0.159684906685E+03    0.11934E-03   -0.51057E-04  6063   0.530E-02    0.338E-01
RMM:   5    -0.159683862504E+03    0.10442E-02   -0.23443E-04  5999   0.413E-02    0.783E-02
RMM:   6    -0.159683798676E+03    0.63829E-04   -0.34112E-05  3945   0.155E-02    0.675E-02
RMM:   7    -0.159683725549E+03    0.73127E-04   -0.15494E-04  6124   0.254E-02    0.515E-02
RMM:   8    -0.159683689943E+03    0.35605E-04   -0.20658E-04  6821   0.272E-02    0.316E-02
RMM:   9    -0.159683699534E+03   -0.95910E-05   -0.14545E-04  6309   0.242E-02    0.319E-02
RMM:  10    -0.159683695650E+03    0.38844E-05   -0.23951E-05  3410   0.117E-02
  15 F= -.15968370E+03 E0= -.15968099E+03  d E =-.258366E-01
 curvature:  -8.80 expect dE=-0.104E-01 dE for cont linesearch -0.186E-03
 ZBRENT: increasing intervall
 opt :  17.3013  next Energy=  -159.684276 (dE=-0.264E-01)
 bond charge predicted
       N       E                     dE             d eps       ncg     rms          rms(c)
DAV:   1    -0.159675169000E+03    0.85305E-02   -0.32908E+00  6000   0.378E+00    0.283E-01
RMM:   2    -0.159685597991E+03   -0.10429E-01   -0.10183E-01  6027   0.698E-01    0.503E-01
RMM:   3    -0.159694250980E+03   -0.86530E-02   -0.15257E-02  8105   0.231E-01    0.110E+00
RMM:   4    -0.159686269318E+03    0.79817E-02   -0.30374E-03  6041   0.134E-01    0.523E-01
RMM:   5    -0.159683357126E+03    0.29122E-02   -0.10318E-03  6016   0.897E-02    0.154E-01
RMM:   6    -0.159683137797E+03    0.21933E-03   -0.16609E-04  5980   0.306E-02    0.126E-01
RMM:   7    -0.159682867163E+03    0.27063E-03   -0.57122E-04  6178   0.453E-02    0.955E-02
RMM:   8    -0.159682758447E+03    0.10872E-03   -0.68267E-04  6863   0.489E-02    0.601E-02
RMM:   9    -0.159682789282E+03   -0.30835E-04   -0.51895E-04  7188   0.442E-02    0.583E-02
RMM:  10    -0.159682772358E+03    0.16924E-04   -0.72400E-05  5442   0.206E-02    0.411E-02
RMM:  11    -0.159682755002E+03    0.17355E-04   -0.91952E-06  3165   0.910E-03    0.333E-02
RMM:  12    -0.159682732545E+03    0.22457E-04   -0.23911E-05  3248   0.114E-02    0.216E-02
RMM:  13    -0.159682726391E+03    0.61537E-05   -0.18466E-05  3103   0.107E-02
  16 F= -.15968273E+03 E0= -.15968001E+03  d E =-.248673E-01
 curvature: -27.51 expect dE=-0.639E-01 dE for cont linesearch -0.712E-02
 ZBRENT: bracketing found
 ZBRENT: interpolating
 opt :  14.5147  next Energy=  -159.683817 (dE=-0.260E-01)
 bond charge predicted
       N       E                     dE             d eps       ncg     rms          rms(c)
DAV:   1    -0.159679370776E+03    0.33618E-02   -0.19910E+00  6000   0.294E+00    0.208E-01
RMM:   2    -0.159685240814E+03   -0.58700E-02   -0.59296E-02  6027   0.530E-01    0.345E-01
RMM:   3    -0.159685839533E+03   -0.59872E-03   -0.87969E-03  8100   0.180E-01    0.397E-01
RMM:   4    -0.159688204023E+03   -0.23645E-02   -0.12513E-03  6075   0.823E-02    0.660E-01
RMM:   5    -0.159684325669E+03    0.38784E-02   -0.59177E-04  6018   0.627E-02    0.120E-01
RMM:   6    -0.159684129559E+03    0.19611E-03   -0.10677E-04  5865   0.272E-02    0.102E-01
RMM:   7    -0.159683975261E+03    0.15430E-03   -0.30937E-04  6223   0.344E-02    0.854E-02
RMM:   8    -0.159683879659E+03    0.95602E-04   -0.37049E-04  6582   0.359E-02    0.515E-02
RMM:   9    -0.159683894440E+03   -0.14781E-04   -0.38463E-04  7184   0.380E-02    0.530E-02
RMM:  10    -0.159683887329E+03    0.71106E-05   -0.86742E-05  5805   0.207E-02
  17 F= -.15968389E+03 E0= -.15968117E+03  d E =-.260282E-01
 curvature:  -0.47 expect dE=-0.613E-03 dE for cont linesearch -0.185E-05
 trial: gam= 0.49782 g(F)=  0.131E-02 g(S)=  0.000E+00 ort =-0.132E-03 (trialstep = 0.940E+01)
 search vector abs. value=  0.227E-02
 bond charge predicted
       N       E                     dE             d eps       ncg     rms          rms(c)
DAV:   1    -0.159666817898E+03    0.17077E-01   -0.11639E+01  6000   0.693E+00    0.571E-01
RMM:   2    -0.159808182092E+03   -0.14136E+00   -0.39087E-01  6029   0.145E+00    0.329E+00
RMM:   3    -0.159726872521E+03    0.81310E-01   -0.67015E-02  7233   0.475E-01    0.168E+00
RMM:   4    -0.159698494936E+03    0.28378E-01   -0.18377E-02  6018   0.360E-01    0.457E-01
RMM:   5    -0.159695466908E+03    0.30280E-02   -0.19619E-03  6019   0.117E-01    0.289E-01
RMM:   6    -0.159694944375E+03    0.52253E-03   -0.55859E-04  6128   0.564E-02    0.246E-01
RMM:   7    -0.159694267782E+03    0.67659E-03   -0.13892E-03  6239   0.772E-02    0.218E-01
RMM:   8    -0.159693510667E+03    0.75712E-03   -0.38087E-03  6293   0.117E-01    0.102E-01
RMM:   9    -0.159693602392E+03   -0.91726E-04   -0.19042E-03  7849   0.816E-02    0.841E-02
RMM:  10    -0.159693546519E+03    0.55874E-04   -0.82913E-05  5728   0.239E-02    0.679E-02
RMM:  11    -0.159693501319E+03    0.45200E-04   -0.23018E-05  3485   0.138E-02    0.543E-02
RMM:  12    -0.159693447599E+03    0.53719E-04   -0.11499E-04  5758   0.218E-02    0.362E-02
RMM:  13    -0.159693428729E+03    0.18870E-04   -0.97540E-05  5628   0.185E-02    0.138E-02
RMM:  14    -0.159693429126E+03   -0.39665E-06   -0.17779E-05  3209   0.107E-02
  18 F= -.15969343E+03 E0= -.15969080E+03  d E =-.954180E-02
 trial-energy change:   -0.009542  1 .order   -0.008684   -0.011670   -0.005699
 step:  13.4164(harm= 18.3635)  dis= 0.00642  next Energy=  -159.694716 (dE=-0.108E-01)
 bond charge predicted
       N       E                     dE             d eps       ncg     rms          rms(c)
DAV:   1    -0.159691289762E+03    0.21390E-02   -0.21324E+00  6000   0.297E+00    0.239E-01
RMM:   2    -0.159717022325E+03   -0.25733E-01   -0.69058E-02  6030   0.583E-01    0.146E+00
RMM:   3    -0.159701323172E+03    0.15699E-01   -0.11185E-02  7116   0.197E-01    0.652E-01
RMM:   4    -0.159697117299E+03    0.42059E-02   -0.31070E-03  6018   0.147E-01    0.215E-01
RMM:   5    -0.159696479155E+03    0.63814E-03   -0.35287E-04  6020   0.515E-02    0.119E-01
RMM:   6    -0.159696383404E+03    0.95751E-04   -0.94191E-05  5510   0.238E-02    0.999E-02
RMM:   7    -0.159696240279E+03    0.14312E-03   -0.36789E-04  6231   0.387E-02    0.853E-02
RMM:   8    -0.159696147924E+03    0.92356E-04   -0.67142E-04  6298   0.478E-02    0.417E-02
RMM:   9    -0.159696158467E+03   -0.10543E-04   -0.20538E-04  6940   0.276E-02    0.322E-02
RMM:  10    -0.159696152521E+03    0.59459E-05   -0.11959E-05  3318   0.967E-03
  19 F= -.15969615E+03 E0= -.15969355E+03  d E =-.122652E-01
 curvature: -11.65 expect dE=-0.656E-02 dE for cont linesearch -0.122E-02
 ZBRENT: increasing intervall
 opt :  21.4579  next Energy=  -159.699102 (dE=-0.152E-01)
 bond charge predicted
       N       E                     dE             d eps       ncg     rms          rms(c)
DAV:   1    -0.159678860601E+03    0.17298E-01   -0.85133E+00  6000   0.593E+00    0.507E-01
RMM:   2    -0.159782675815E+03   -0.10382E+00   -0.28880E-01  6030   0.123E+00    0.285E+00
RMM:   3    -0.159721336999E+03    0.61339E-01   -0.48966E-02  7203   0.407E-01    0.138E+00
RMM:   4    -0.159702392238E+03    0.18945E-01   -0.13901E-02  6018   0.311E-01    0.425E-01
RMM:   5    -0.159699840108E+03    0.25521E-02   -0.15698E-03  6021   0.108E-01    0.237E-01
RMM:   6    -0.159699444214E+03    0.39589E-03   -0.42981E-04  6092   0.506E-02    0.196E-01
RMM:   7    -0.159698962629E+03    0.48158E-03   -0.11180E-03  6280   0.683E-02    0.168E-01
RMM:   8    -0.159698554968E+03    0.40766E-03   -0.23998E-03  6404   0.925E-02    0.809E-02
RMM:   9    -0.159698615992E+03   -0.61024E-04   -0.10184E-03  7772   0.607E-02    0.703E-02
RMM:  10    -0.159698584367E+03    0.31625E-04   -0.55162E-05  4834   0.197E-02    0.571E-02
RMM:  11    -0.159698553325E+03    0.31041E-04   -0.17831E-05  3321   0.133E-02    0.446E-02
RMM:  12    -0.159698520140E+03    0.33186E-04   -0.63070E-05  4873   0.167E-02    0.314E-02
RMM:  13    -0.159698505639E+03    0.14500E-04   -0.64978E-05  4963   0.162E-02    0.122E-02
RMM:  14    -0.159698506361E+03   -0.72123E-06   -0.17542E-05  3216   0.107E-02
  20 F= -.15969851E+03 E0= -.15969596E+03  d E =-.146190E-01
 curvature: -28.21 expect dE=-0.170E-01 dE for cont linesearch -0.262E-04
 trial: gam= 0.21938 g(F)=  0.602E-03 g(S)=  0.000E+00 ort =-0.459E-04 (trialstep = 0.118E+02)
 search vector abs. value=  0.691E-03
 bond charge predicted
       N       E                     dE             d eps       ncg     rms          rms(c)
DAV:   1    -0.159690154848E+03    0.83508E-02   -0.56515E+00  6000   0.489E+00    0.414E-01
RMM:   2    -0.159815759477E+03   -0.12560E+00   -0.19566E-01  6029   0.979E-01    0.335E+00
RMM:   3    -0.159714298868E+03    0.10146E+00   -0.34097E-02  6423   0.364E-01    0.835E-01
RMM:   4    -0.159705582878E+03    0.87160E-02   -0.91160E-03  6019   0.243E-01    0.375E-01
RMM:   5    -0.159703760394E+03    0.18225E-02   -0.11203E-03  6020   0.894E-02    0.196E-01
RMM:   6    -0.159703472457E+03    0.28794E-03   -0.28052E-04  6016   0.445E-02    0.169E-01
RMM:   7    -0.159703201032E+03    0.27143E-03   -0.51105E-04  6155   0.490E-02    0.147E-01
RMM:   8    -0.159702852797E+03    0.34823E-03   -0.15936E-03  6107   0.748E-02    0.662E-02
RMM:   9    -0.159702917296E+03   -0.64499E-04   -0.76959E-04  7772   0.541E-02    0.767E-02
RMM:  10    -0.159702889844E+03    0.27452E-04   -0.79641E-05  5566   0.224E-02    0.449E-02
RMM:  11    -0.159702868238E+03    0.21606E-04   -0.15450E-05  3329   0.115E-02    0.372E-02
RMM:  12    -0.159702839765E+03    0.28473E-04   -0.60382E-05  4899   0.166E-02    0.219E-02
RMM:  13    -0.159702835920E+03    0.38451E-05   -0.21327E-05  3278   0.111E-02
  21 F= -.15970284E+03 E0= -.15970027E+03  d E =-.432956E-02
 trial-energy change:   -0.004330  1 .order   -0.003510   -0.006993   -0.000027
 step:  11.8353(harm= 11.8546)  dis= 0.00984  next Energy=  -159.702836 (dE=-0.433E-02)
 bond charge predicted
       N       E                     dE             d eps       ncg     rms          rms(c)
DAV:   1    -0.159702839027E+03    0.73814E-06   -0.74171E-05  7080   0.176E-02    0.531E-03
RMM:   2    -0.159702869932E+03   -0.30905E-04   -0.93150E-06  3246   0.879E-03    0.582E-02
RMM:   3    -0.159702843536E+03    0.26397E-04   -0.45100E-06  3194   0.793E-03    0.165E-02
RMM:   4    -0.159702840377E+03    0.31587E-05   -0.12446E-06  3097   0.373E-03
  22 F= -.15970284E+03 E0= -.15970028E+03  d E =-.433402E-02
 curvature:  -5.73 expect dE=-0.335E-03 dE for cont linesearch -0.205E-04
 ZBRENT: increasing intervall
 opt :  11.8899  next Energy=  -159.702846 (dE=-0.434E-02)
 bond charge predicted
       N       E                     dE             d eps       ncg     rms          rms(c)
DAV:   1    -0.159702844227E+03   -0.69182E-06   -0.12249E-04  6800   0.229E-02    0.530E-03
RMM:   2    -0.159702912253E+03   -0.68026E-04   -0.11436E-05  3297   0.792E-03    0.879E-02
RMM:   3    -0.159702847694E+03    0.64559E-04   -0.86417E-06  3239   0.106E-02    0.919E-03
RMM:   4    -0.159702845257E+03    0.24373E-05   -0.15700E-06  3106   0.415E-03
  23 F= -.15970285E+03 E0= -.15970028E+03  d E =-.433890E-02
 curvature:  -1.48 expect dE=-0.859E-04 dE for cont linesearch -0.409E-05
 ZBRENT: increasing intervall
 opt :  11.9989  next Energy=  -159.702849 (dE=-0.434E-02)
 bond charge predicted
       N       E                     dE             d eps       ncg     rms          rms(c)
DAV:   1    -0.159702851791E+03   -0.40969E-05   -0.49188E-04  6880   0.456E-02    0.600E-03
RMM:   2    -0.159702927057E+03   -0.75266E-04   -0.21364E-05  3421   0.109E-02    0.919E-02
RMM:   3    -0.159702856625E+03    0.70433E-04   -0.11562E-05  3249   0.118E-02    0.110E-02
RMM:   4    -0.159702853484E+03    0.31405E-05   -0.26233E-06  3140   0.520E-03
  24 F= -.15970285E+03 E0= -.15970029E+03  d E =-.434712E-02
 curvature:  -1.49 expect dE=-0.808E-04 dE for cont linesearch -0.227E-05
 ZBRENT: increasing intervall
 opt :  12.2170  next Energy=  -159.702858 (dE=-0.435E-02)
 bond charge predicted
       N       E                     dE             d eps       ncg     rms          rms(c)
DAV:   1    -0.159702863382E+03   -0.67571E-05   -0.19611E-03  6280   0.909E-02    0.833E-03
RMM:   2    -0.159702985235E+03   -0.12185E-03   -0.70184E-05  5200   0.182E-02    0.114E-01
RMM:   3    -0.159702874044E+03    0.11119E-03   -0.16362E-05  3347   0.108E-02    0.150E-02
RMM:   4    -0.159702868942E+03    0.51029E-05   -0.56292E-06  3188   0.871E-03
  25 F= -.15970287E+03 E0= -.15970030E+03  d E =-.436258E-02
 curvature:  -3.04 expect dE=-0.169E-03 dE for cont linesearch -0.246E-05
 ZBRENT: increasing intervall
 opt :  12.6533  next Energy=  -159.702875 (dE=-0.437E-02)
 bond charge predicted
       N       E                     dE             d eps       ncg     rms          rms(c)
DAV:   1    -0.159702877609E+03   -0.35650E-05   -0.78038E-03  6080   0.182E-01    0.149E-02
RMM:   2    -0.159703223351E+03   -0.34574E-03   -0.26745E-04  5959   0.357E-02    0.190E-01
RMM:   3    -0.159702913842E+03    0.30951E-03   -0.54335E-05  4947   0.164E-02    0.258E-02
RMM:   4    -0.159702898451E+03    0.15391E-04   -0.11393E-05  3312   0.113E-02    0.124E-02
RMM:   5    -0.159702897085E+03    0.13655E-05   -0.29711E-06  3137   0.673E-03
  26 F= -.15970290E+03 E0= -.15970033E+03  d E =-.439072E-02
 curvature:  -7.95 expect dE=-0.462E-03 dE for cont linesearch -0.487E-05
 ZBRENT: increasing intervall
 opt :  13.5257  next Energy=  -159.702912 (dE=-0.441E-02)
 bond charge predicted
       N       E                     dE             d eps       ncg     rms          rms(c)
DAV:   1    -0.159702867949E+03    0.30502E-04   -0.30979E-02  6080   0.362E-01    0.278E-02
RMM:   2    -0.159703871665E+03   -0.10037E-02   -0.99245E-04  6015   0.681E-02    0.320E-01
RMM:   3    -0.159702996307E+03    0.87536E-03   -0.18829E-04  5996   0.281E-02    0.501E-02
RMM:   4    -0.159702949042E+03    0.47265E-04   -0.33735E-05  3961   0.167E-02    0.253E-02
RMM:   5    -0.159702942144E+03    0.68981E-05   -0.71970E-06  3189   0.106E-02
  27 F= -.15970294E+03 E0= -.15970037E+03  d E =-.443578E-02
 curvature: -24.94 expect dE=-0.150E-02 dE for cont linesearch -0.580E-05
 ZBRENT: bracketing found
 ZBRENT: interpolating
 opt :  13.1930  next Energy=  -159.702944 (dE=-0.444E-02)
 bond charge predicted
       N       E                     dE             d eps       ncg     rms          rms(c)
DAV:   1    -0.159702919301E+03    0.29741E-04   -0.44198E-03  6560   0.137E-01    0.224E-02
RMM:   2    -0.159702943312E+03   -0.24011E-04   -0.21464E-04  5913   0.309E-02    0.405E-02
RMM:   3    -0.159702939008E+03    0.43041E-05   -0.40533E-05  4193   0.143E-02
  28 F= -.15970294E+03 E0= -.15970038E+03  d E =-.443265E-02
 curvature:  -9.07 expect dE=-0.535E-03 dE for cont linesearch -0.583E-04
 ZBRENT: interpolating
 opt :  13.4726  next Energy=  -159.702942 (dE=-0.444E-02)
 bond charge predicted
       N       E                     dE             d eps       ncg     rms          rms(c)
DAV:   1    -0.159702961506E+03   -0.18194E-04   -0.32247E-03  6480   0.131E-01    0.611E-02
RMM:   2    -0.159714091318E+03   -0.11130E-01   -0.15933E-03  6029   0.910E-02    0.112E+00
RMM:   3    -0.159703312826E+03    0.10778E-01   -0.10329E-03  6013   0.766E-02    0.451E-02
RMM:   4    -0.159702951265E+03    0.36156E-03   -0.13524E-04  5977   0.368E-02    0.321E-02
RMM:   5    -0.159702939723E+03    0.11542E-04   -0.17186E-05  3379   0.120E-02    0.191E-02
RMM:   6    -0.159702936556E+03    0.31675E-05   -0.76502E-06  3213   0.107E-02
  29 F= -.15970294E+03 E0= -.15970037E+03  d E =-.443019E-02
 curvature:  -0.05 expect dE=-0.299E-05 dE for cont linesearch -0.325E-10
 trial: gam= 0.11075 g(F)=  0.571E-04 g(S)=  0.000E+00 ort = 0.655E-06 (trialstep = 0.121E+02)
 search vector abs. value=  0.657E-04
 bond charge predicted
       N       E                     dE             d eps       ncg     rms          rms(c)
DAV:   1    -0.159702354327E+03    0.58540E-03   -0.56416E-01  6000   0.156E+00    0.104E-01
RMM:   2    -0.159708673345E+03   -0.63190E-02   -0.17898E-02  6029   0.292E-01    0.731E-01
RMM:   3    -0.159704255592E+03    0.44178E-02   -0.25222E-03  7706   0.955E-02    0.176E-01
RMM:   4    -0.159703925781E+03    0.32981E-03   -0.46209E-04  6012   0.586E-02    0.120E-01
RMM:   5    -0.159703757515E+03    0.16827E-03   -0.87424E-05  5840   0.270E-02    0.596E-02
RMM:   6    -0.159703732986E+03    0.24528E-04   -0.30867E-05  3692   0.147E-02    0.558E-02
RMM:   7    -0.159703681644E+03    0.51343E-04   -0.17293E-04  6331   0.261E-02    0.382E-02
RMM:   8    -0.159703674429E+03    0.72146E-05   -0.89738E-05  5772   0.193E-02
  30 F= -.15970367E+03 E0= -.15970109E+03  d E =-.737874E-03
 trial-energy change:   -0.000738  1 .order   -0.000602   -0.000694   -0.000511
 step:  46.0638(harm= 46.0638)  dis= 0.00908  next Energy=  -159.704252 (dE=-0.132E-02)
 bond charge predicted
       N       E                     dE             d eps       ncg     rms          rms(c)
DAV:   1    -0.159693381330E+03    0.10300E-01   -0.43958E+00  6000   0.437E+00    0.310E-01
RMM:   2    -0.159741009563E+03   -0.47628E-01   -0.14207E-01  6029   0.826E-01    0.198E+00
RMM:   3    -0.159708334933E+03    0.32675E-01   -0.20352E-02  7801   0.268E-01    0.525E-01
RMM:   4    -0.159705752582E+03    0.25824E-02   -0.40401E-03  6018   0.173E-01    0.356E-01
RMM:   5    -0.159704248141E+03    0.15044E-02   -0.78446E-04  6021   0.814E-02    0.161E-01
RMM:   6    -0.159704056227E+03    0.19191E-03   -0.27963E-04  5986   0.410E-02    0.145E-01
RMM:   7    -0.159703690377E+03    0.36585E-03   -0.10852E-03  6109   0.615E-02    0.102E-01
RMM:   8    -0.159703640223E+03    0.50154E-04   -0.74720E-04  7584   0.507E-02    0.835E-02
RMM:   9    -0.159703641655E+03   -0.14319E-05   -0.33049E-04  6687   0.372E-02    0.570E-02
RMM:  10    -0.159703621737E+03    0.19919E-04   -0.49537E-05  4746   0.172E-02    0.404E-02
RMM:  11    -0.159703602348E+03    0.19389E-04   -0.11470E-05  3202   0.107E-02    0.331E-02
RMM:  12    -0.159703583730E+03    0.18618E-04   -0.19996E-05  3172   0.113E-02    0.214E-02
RMM:  13    -0.159703578314E+03    0.54163E-05   -0.14507E-05  3093   0.102E-02
  31 F= -.15970358E+03 E0= -.15970096E+03  d E =-.641758E-03
 curvature: -26.48 expect dE=-0.739E-02 dE for cont linesearch -0.274E-02
 ZBRENT: interpolating
 opt :  23.6051  next Energy=  -159.703916 (dE=-0.979E-03)
 bond charge predicted
       N       E                     dE             d eps       ncg     rms          rms(c)
DAV:   1    -0.159699653145E+03    0.39306E-02   -0.19267E+00  6000   0.289E+00    0.191E-01
RMM:   2    -0.159717595393E+03   -0.17942E-01   -0.59479E-02  6029   0.528E-01    0.122E+00
RMM:   3    -0.159705999856E+03    0.11596E-01   -0.84524E-03  7954   0.178E-01    0.331E-01
RMM:   4    -0.159704984850E+03    0.10150E-02   -0.15050E-03  6018   0.106E-01    0.233E-01
RMM:   5    -0.159704354739E+03    0.63011E-03   -0.32046E-04  6018   0.515E-02    0.109E-01
RMM:   6    -0.159704270924E+03    0.83814E-04   -0.12360E-04  5822   0.267E-02    0.100E-01
RMM:   7    -0.159704110302E+03    0.16062E-03   -0.46740E-04  6095   0.399E-02    0.819E-02
RMM:   8    -0.159704070707E+03    0.39595E-04   -0.37005E-04  7387   0.352E-02    0.663E-02
RMM:   9    -0.159704053286E+03    0.17421E-04   -0.17007E-04  6433   0.267E-02    0.364E-02
RMM:  10    -0.159704043501E+03    0.97850E-05   -0.20132E-05  3431   0.123E-02
  32 F= -.15970404E+03 E0= -.15970145E+03  d E =-.110695E-02
 curvature:  -2.33 expect dE=-0.135E-03 dE for cont linesearch -0.657E-05
 ZBRENT: interpolating
 opt :  20.8032  next Energy=  -159.704063 (dE=-0.113E-02)
 bond charge predicted
       N       E                     dE             d eps       ncg     rms          rms(c)
DAV:   1    -0.159703911062E+03    0.14222E-03   -0.29628E-02  6080   0.358E-01    0.429E-02
RMM:   2    -0.159704342529E+03   -0.43147E-03   -0.12312E-03  6012   0.743E-02    0.199E-01
RMM:   3    -0.159704033828E+03    0.30870E-03   -0.17791E-04  6407   0.271E-02    0.733E-02
RMM:   4    -0.159704015477E+03    0.18351E-04   -0.85633E-05  5740   0.244E-02    0.574E-02
RMM:   5    -0.159703978923E+03    0.36554E-04   -0.18997E-05  3424   0.141E-02    0.154E-02
RMM:   6    -0.159703975395E+03    0.35286E-05   -0.43222E-06  3112   0.721E-03
  33 F= -.15970398E+03 E0= -.15970139E+03  d E =-.103884E-02
 curvature:  -6.76 expect dE=-0.210E-03 dE for cont linesearch -0.370E-05
 trial: gam= 0.43690 g(F)=  0.311E-04 g(S)=  0.000E+00 ort = 0.600E-05 (trialstep = 0.139E+02)
 search vector abs. value=  0.489E-04
 bond charge predicted
       N       E                     dE             d eps       ncg     rms          rms(c)
DAV:   1    -0.159703231318E+03    0.74761E-03   -0.54707E-01  6000   0.154E+00    0.104E-01
RMM:   2    -0.159705908890E+03   -0.26776E-02   -0.16104E-02  6026   0.282E-01    0.384E-01
RMM:   3    -0.159705629570E+03    0.27932E-03   -0.22799E-03  8145   0.897E-02    0.331E-01
RMM:   4    -0.159704778308E+03    0.85126E-03   -0.56838E-04  6013   0.637E-02    0.125E-01
RMM:   5    -0.159704584817E+03    0.19349E-03   -0.86361E-05  5768   0.260E-02    0.615E-02
RMM:   6    -0.159704558491E+03    0.26326E-04   -0.21189E-05  3319   0.136E-02    0.557E-02
RMM:   7    -0.159704526514E+03    0.31977E-04   -0.51209E-05  4582   0.163E-02    0.469E-02
RMM:   8    -0.159704494813E+03    0.31701E-04   -0.16935E-04  6385   0.253E-02    0.383E-02
RMM:   9    -0.159704492979E+03    0.18340E-05   -0.73836E-05  5528   0.179E-02
  34 F= -.15970449E+03 E0= -.15970191E+03  d E =-.517584E-03
 trial-energy change:   -0.000518  1 .order   -0.000332   -0.000468   -0.000195
 step:  15.6428(harm= 23.8142)  dis= 0.00111  next Energy=  -159.704506 (dE=-0.530E-03)
 reached required accuracy - stopping structural energy minimisation
 writing wavefunctions
